
     Program PWSCF v.6.8 starts on  8Jan2025 at 16:14: 0 

     This program is part of the open-source Quantum ESPRESSO suite
     for quantum simulation of materials; please cite
         "P. Giannozzi et al., J. Phys.:Condens. Matter 21 395502 (2009);
         "P. Giannozzi et al., J. Phys.:Condens. Matter 29 465901 (2017);
         "P. Giannozzi et al., J. Chem. Phys. 152 154105 (2020);
          URL http://www.quantum-espresso.org", 
     in publications or presentations arising from this work. More details at
     http://www.quantum-espresso.org/quote

     Serial version
     6036 MiB available memory on the printing compute node when the environment starts

     Reading input from scf.in

     Current dimensions of program PWSCF are:
     Max number of different atomic species (ntypx) = 10
     Max number of k-points (npk) =  40000
     Max angular momentum in pseudopotentials (lmaxx) =  4
     file Ba.pbe-spn-kjpaw_psl.1.0.0.UPF: wavefunction(s)  5S 6S renormalized
     file Ti.pbe-spn-kjpaw_psl.1.0.0.UPF: wavefunction(s)  3S 3P 3D renormalized
     file O.pbe-n-kjpaw_psl.1.0.0.UPF: wavefunction(s)  2S 2P renormalized

     G-vector sticks info
     --------------------
     sticks:   dense  smooth     PW     G-vecs:    dense   smooth      PW
     Sum        7385    7385   1901               475489   475489   62669

     Using Slab Decomposition



     bravais-lattice index     =            0
     lattice parameter (alat)  =      17.0075  a.u.
     unit-cell volume          =    4919.5358 (a.u.)^3
     number of atoms/cell      =           39
     number of atomic types    =            3
     number of electrons       =       314.00
     number of Kohn-Sham states=          188
     kinetic-energy cutoff     =      80.0000  Ry
     charge density cutoff     =     320.0000  Ry
     scf convergence threshold =      1.0E-07
     mixing beta               =       0.5000
     number of iterations used =            8  plain     mixing
     Exchange-correlation= SLA  PW   PBX  PBC
                           (   1   4   3   4   0   0   0)

     celldm(1)=  17.007535  celldm(2)=   0.000000  celldm(3)=   0.000000
     celldm(4)=   0.000000  celldm(5)=   0.000000  celldm(6)=   0.000000

     crystal axes: (cart. coord. in units of alat)
               a(1) = (   1.000000   0.000000   0.000000 )  
               a(2) = (   0.000000   1.000000   0.000000 )  
               a(3) = (   0.000000   0.000000   1.000000 )  

     reciprocal axes: (cart. coord. in units 2 pi/alat)
               b(1) = (  1.000000  0.000000  0.000000 )  
               b(2) = (  0.000000  1.000000  0.000000 )  
               b(3) = (  0.000000  0.000000  1.000000 )  


     PseudoPot. # 1 for Ba read from file:
     ./pseudo/Ba.pbe-spn-kjpaw_psl.1.0.0.UPF
     MD5 check sum: a94004ef8cdd1ef6024fa921b83633cc
     Pseudo is Projector augmented-wave + core cor, Zval = 10.0
     Generated using &quot;atomic&quot; code by A. Dal Corso  v.6.2.2
     Shape of augmentation charge: PSQ
     Using radial grid of 1251 points,  7 beta functions with: 
                l(1) =   0
                l(2) =   0
                l(3) =   0
                l(4) =   1
                l(5) =   1
                l(6) =   2
                l(7) =   2
     Q(r) pseudized with 0 coefficients 


     PseudoPot. # 2 for Ti read from file:
     ./pseudo/Ti.pbe-spn-kjpaw_psl.1.0.0.UPF
     MD5 check sum: 7ea84e4330344cbc938d542ff58a5c10
     Pseudo is Projector augmented-wave + core cor, Zval = 12.0
     Generated using &quot;atomic&quot; code by A. Dal Corso  v.6.2.2
     Shape of augmentation charge: PSQ
     Using radial grid of 1177 points,  6 beta functions with: 
                l(1) =   0
                l(2) =   0
                l(3) =   1
                l(4) =   1
                l(5) =   2
                l(6) =   2
     Q(r) pseudized with 0 coefficients 


     PseudoPot. # 3 for O  read from file:
     ./pseudo/O.pbe-n-kjpaw_psl.1.0.0.UPF
     MD5 check sum: 62c11a45e085f03adfe5482d7843b034
     Pseudo is Projector augmented-wave + core cor, Zval =  6.0
     Generated using &quot;atomic&quot; code by A. Dal Corso  v.6.3
     Shape of augmentation charge: PSQ
     Using radial grid of 1095 points,  4 beta functions with: 
                l(1) =   0
                l(2) =   0
                l(3) =   1
                l(4) =   1
     Q(r) pseudized with 0 coefficients 


     atomic species   valence    mass     pseudopotential
        Ba            10.00   137.33000     Ba( 1.00)
        Ti            12.00    47.86700     Ti( 1.00)
        O              6.00    15.99900     O ( 1.00)

     No symmetry found



   Cartesian axes

     site n.     atom                  positions (alat units)
         1           Ba  tau(   1) = (   0.2310000   0.5985556   0.9682222  )
         2           Ba  tau(   2) = (   0.9960000   0.6130000   0.5127778  )
         3           Ba  tau(   3) = (   0.9382222   0.8705556   0.6110000  )
         4           Ba  tau(   4) = (   0.5197778   0.0366667   0.4175556  )
         5           Ba  tau(   5) = (   0.0644444   0.6775556   0.0981111  )
         6           Ba  tau(   6) = (   0.1536667   0.6914444   0.5334444  )
         7           Ba  tau(   7) = (   0.1757778   0.9386667   0.8830000  )
         8           Ba  tau(   8) = (   0.4313333   0.0793333   0.7272222  )
         9           Ti  tau(   9) = (   0.3645556   0.5266667   0.2703333  )
        10           Ti  tau(  10) = (   0.1024444   0.3221111   0.7958889  )
        11           Ti  tau(  11) = (   0.3161111   0.6943333   0.5236667  )
        12           Ti  tau(  12) = (   0.5367778   0.8146667   0.6131111  )
        13           Ti  tau(  13) = (   0.2278889   0.4120000   0.8943333  )
        14           Ti  tau(  14) = (   0.0932222   0.4301111   0.4290000  )
        15           Ti  tau(  15) = (   0.1288889   0.8007778   0.7368889  )
        16           Ti  tau(  16) = (   0.5242222   0.3676667   0.8818889  )
        17           O   tau(  17) = (   0.5563333   0.5250000   0.1790000  )
        18           O   tau(  18) = (   0.0462222   0.9540000   0.6218889  )
        19           O   tau(  19) = (   0.8981111   0.5874444   0.8928889  )
        20           O   tau(  20) = (   0.2043333   0.8608889   0.1861111  )
        21           O   tau(  21) = (   0.5840000   0.8915556   0.9073333  )
        22           O   tau(  22) = (   0.4177778   0.3722222   0.9584444  )
        23           O   tau(  23) = (   0.4365556   0.0463333   0.1954444  )
        24           O   tau(  24) = (   0.4166667   0.4971111   0.8414444  )
        25           O   tau(  25) = (   0.9461111   0.4088889   0.6954444  )
        26           O   tau(  26) = (   0.4974444   0.7854444   0.3803333  )
        27           O   tau(  27) = (   0.5245556   0.0895556   0.0761111  )
        28           O   tau(  28) = (   0.1883333   0.3247778   0.1491111  )
        29           O   tau(  29) = (   0.6424444   0.5740000   0.7491111  )
        30           O   tau(  30) = (   0.5054444   0.5923333   0.7750000  )
        31           O   tau(  31) = (   0.8948889   0.3675556   0.8934444  )
        32           O   tau(  32) = (   0.3636667   0.0176667   0.0867778  )
        33           O   tau(  33) = (   0.9118889   0.2346667   0.5285556  )
        34           O   tau(  34) = (   0.8574444   0.3485556   0.9762222  )
        35           O   tau(  35) = (   0.1302222   0.6551111   0.8043333  )
        36           O   tau(  36) = (   0.6532222   0.6541111   0.3194444  )
        37           O   tau(  37) = (   0.3512222   0.2207778   0.4253333  )
        38           O   tau(  38) = (   0.6494444   0.0865556   0.0145556  )
        39           O   tau(  39) = (   0.2375556   0.8486667   0.5025556  )

     number of k points=     4  Gaussian smearing, width (Ry)=  0.0020
                       cart. coord. in units 2pi/alat
        k(    1) = (   0.2500000   0.2500000   0.2500000), wk =   0.5000000
        k(    2) = (  -0.2500000  -0.2500000   0.2500000), wk =   0.5000000
        k(    3) = (  -0.2500000   0.2500000  -0.2500000), wk =   0.5000000
        k(    4) = (   0.2500000  -0.2500000  -0.2500000), wk =   0.5000000

     Dense  grid:   475489 G-vectors     FFT dimensions: ( 100, 100, 100)

     Estimated max dynamical RAM per process >       3.48 GB

     Atomic positions and unit cell read from directory:
     ./tmp/BaTiO3_defect.save/
     Message from routine qexsd_readschema :
     xml data file ./tmp/BaTiO3_defect.save/data-file-schema.xml not found
     Nothing found: using input atomic positions and unit cell


     Check: negative core charge=   -0.000005
     Cannot read rho : file not found

     Initial potential from superposition of free atoms

     starting charge  313.85211, renormalised to  314.00000
     Message from routine qexsd_readschema :
     xml data file ./tmp/BaTiO3_defect.save/data-file-schema.xml not found
     Cannot read wfcs: file not found
     Starting wfcs are  212 randomized atomic wfcs

     total cpu time spent up to now is      130.9 secs

     Self-consistent Calculation

     iteration #  1     ecut=    80.00 Ry     beta= 0.50
     Davidson diagonalization with overlap
     c_bands:  3 eigenvalues not converged
     c_bands:  1 eigenvalues not converged
     ethr =  1.00E-05,  avg # of iterations = 41.0

     negative rho (up, down):  1.709E-01 0.000E+00

     total cpu time spent up to now is     4329.3 secs

     total energy              =   -5830.69820416 Ry
     estimated scf accuracy    <     109.52135366 Ry

     iteration #  2     ecut=    80.00 Ry     beta= 0.50
     Davidson diagonalization with overlap
     ethr =  1.00E-02,  avg # of iterations = 11.2

     negative rho (up, down):  1.708E-01 0.000E+00

     total cpu time spent up to now is     5364.2 secs

     total energy              =   -5805.23487462 Ry
     estimated scf accuracy    <    1193.70999189 Ry

     iteration #  3     ecut=    80.00 Ry     beta= 0.50
     Davidson diagonalization with overlap
     ethr =  1.00E-02,  avg # of iterations =  8.5

     negative rho (up, down):  1.625E-01 0.000E+00

     total cpu time spent up to now is     6295.3 secs

     total energy              =   -5889.10289351 Ry
     estimated scf accuracy    <     155.94540359 Ry

     iteration #  4     ecut=    80.00 Ry     beta= 0.50
     Davidson diagonalization with overlap
     ethr =  1.00E-02,  avg # of iterations =  2.0

     negative rho (up, down):  1.499E-01 0.000E+00

     total cpu time spent up to now is     6640.4 secs

     total energy              =   -5896.21139571 Ry
     estimated scf accuracy    <      56.43647349 Ry

     iteration #  5     ecut=    80.00 Ry     beta= 0.50
     Davidson diagonalization with overlap
     ethr =  1.00E-02,  avg # of iterations =  2.0

     negative rho (up, down):  1.415E-01 0.000E+00

     total cpu time spent up to now is     6965.6 secs

     total energy              =   -5896.52104022 Ry
     estimated scf accuracy    <      26.66517009 Ry

     iteration #  6     ecut=    80.00 Ry     beta= 0.50
     Davidson diagonalization with overlap
     ethr =  8.49E-03,  avg # of iterations =  2.0

     negative rho (up, down):  1.318E-01 0.000E+00

     total cpu time spent up to now is     7287.4 secs

     total energy              =   -5896.65705167 Ry
     estimated scf accuracy    <      20.24294542 Ry

     iteration #  7     ecut=    80.00 Ry     beta= 0.50
     Davidson diagonalization with overlap
     ethr =  6.45E-03,  avg # of iterations =  2.0

     negative rho (up, down):  1.142E-01 0.000E+00

     total cpu time spent up to now is     7613.0 secs

     total energy              =   -5896.30477382 Ry
     estimated scf accuracy    <      11.46487702 Ry

     iteration #  8     ecut=    80.00 Ry     beta= 0.50
     Davidson diagonalization with overlap
     ethr =  3.65E-03,  avg # of iterations =  2.0

     negative rho (up, down):  1.052E-01 0.000E+00

     total cpu time spent up to now is     7952.7 secs

     total energy              =   -5896.03097010 Ry
     estimated scf accuracy    <      16.36044252 Ry

     iteration #  9     ecut=    80.00 Ry     beta= 0.50
     Davidson diagonalization with overlap
     ethr =  3.65E-03,  avg # of iterations =  2.0

     negative rho (up, down):  9.244E-02 0.000E+00

     total cpu time spent up to now is     8277.4 secs

     total energy              =   -5896.84246592 Ry
     estimated scf accuracy    <       4.00012530 Ry

     iteration # 10     ecut=    80.00 Ry     beta= 0.50
     Davidson diagonalization with overlap
     ethr =  1.27E-03,  avg # of iterations =  9.2

     negative rho (up, down):  7.329E-02 0.000E+00

     total cpu time spent up to now is     8801.4 secs

     total energy              =   -5898.28166046 Ry
     estimated scf accuracy    <      10.17773834 Ry

     iteration # 11     ecut=    80.00 Ry     beta= 0.50
     Davidson diagonalization with overlap
     ethr =  1.27E-03,  avg # of iterations =  2.0

     negative rho (up, down):  7.092E-02 0.000E+00

     total cpu time spent up to now is     9134.4 secs

     total energy              =   -5898.15961757 Ry
     estimated scf accuracy    <       8.15996124 Ry

     iteration # 12     ecut=    80.00 Ry     beta= 0.50
     Davidson diagonalization with overlap
     ethr =  1.27E-03,  avg # of iterations =  1.0

     negative rho (up, down):  6.724E-02 0.000E+00

     total cpu time spent up to now is     9419.5 secs

     total energy              =   -5897.96312913 Ry
     estimated scf accuracy    <       5.30249185 Ry

     iteration # 13     ecut=    80.00 Ry     beta= 0.50
     Davidson diagonalization with overlap
     ethr =  1.27E-03,  avg # of iterations =  1.2

     negative rho (up, down):  6.474E-02 0.000E+00

     total cpu time spent up to now is     9713.9 secs

     total energy              =   -5898.00021017 Ry
     estimated scf accuracy    <       3.44302851 Ry

     iteration # 14     ecut=    80.00 Ry     beta= 0.50
     Davidson diagonalization with overlap
     ethr =  1.10E-03,  avg # of iterations =  1.0

     negative rho (up, down):  5.821E-02 0.000E+00

     total cpu time spent up to now is     9999.7 secs

     total energy              =   -5898.08538047 Ry
     estimated scf accuracy    <       1.61967592 Ry

     iteration # 15     ecut=    80.00 Ry     beta= 0.50
     Davidson diagonalization with overlap
     ethr =  5.16E-04,  avg # of iterations =  2.0

     negative rho (up, down):  5.671E-02 0.000E+00

     total cpu time spent up to now is    10327.4 secs

     total energy              =   -5897.84713999 Ry
     estimated scf accuracy    <       8.77793485 Ry

     iteration # 16     ecut=    80.00 Ry     beta= 0.50
     Davidson diagonalization with overlap
     ethr =  5.16E-04,  avg # of iterations =  1.0

     negative rho (up, down):  5.232E-02 0.000E+00

     total cpu time spent up to now is    10614.9 secs

     total energy              =   -5898.10351967 Ry
     estimated scf accuracy    <       1.22097239 Ry

     iteration # 17     ecut=    80.00 Ry     beta= 0.50
     Davidson diagonalization with overlap
     ethr =  3.89E-04,  avg # of iterations =  2.0

     negative rho (up, down):  4.763E-02 0.000E+00

     total cpu time spent up to now is    10935.3 secs

     total energy              =   -5898.00517075 Ry
     estimated scf accuracy    <       1.40677728 Ry

     iteration # 18     ecut=    80.00 Ry     beta= 0.50
     Davidson diagonalization with overlap
     ethr =  3.89E-04,  avg # of iterations =  2.0

     negative rho (up, down):  4.423E-02 0.000E+00

     total cpu time spent up to now is    11261.1 secs

     total energy              =   -5897.66938411 Ry
     estimated scf accuracy    <       8.51448150 Ry

     iteration # 19     ecut=    80.00 Ry     beta= 0.50
     Davidson diagonalization with overlap
     ethr =  3.89E-04,  avg # of iterations =  2.0

     negative rho (up, down):  4.484E-02 0.000E+00

     total cpu time spent up to now is    11794.0 secs

     total energy              =   -5897.93979450 Ry
     estimated scf accuracy    <       3.95106060 Ry

     iteration # 20     ecut=    80.00 Ry     beta= 0.50
     Davidson diagonalization with overlap
     ethr =  3.89E-04,  avg # of iterations =  2.0

     negative rho (up, down):  4.519E-02 0.000E+00

     total cpu time spent up to now is    12120.1 secs

     total energy              =   -5898.01047100 Ry
     estimated scf accuracy    <       2.25691879 Ry

     iteration # 21     ecut=    80.00 Ry     beta= 0.50
     Davidson diagonalization with overlap
     ethr =  3.89E-04,  avg # of iterations =  1.0

     negative rho (up, down):  4.510E-02 0.000E+00

     total cpu time spent up to now is    12405.9 secs

     total energy              =   -5898.07600547 Ry
     estimated scf accuracy    <       1.03669005 Ry

     iteration # 22     ecut=    80.00 Ry     beta= 0.50
     Davidson diagonalization with overlap
     ethr =  3.30E-04,  avg # of iterations =  1.2

     negative rho (up, down):  4.481E-02 0.000E+00

     total cpu time spent up to now is    12698.4 secs

     total energy              =   -5898.09061885 Ry
     estimated scf accuracy    <       1.10816844 Ry

     iteration # 23     ecut=    80.00 Ry     beta= 0.50
     Davidson diagonalization with overlap
     ethr =  3.30E-04,  avg # of iterations =  1.0

     negative rho (up, down):  4.441E-02 0.000E+00

     total cpu time spent up to now is    12983.8 secs

     total energy              =   -5898.13113888 Ry
     estimated scf accuracy    <       0.19628699 Ry

     iteration # 24     ecut=    80.00 Ry     beta= 0.50
     Davidson diagonalization with overlap
     ethr =  6.25E-05,  avg # of iterations =  2.0

     negative rho (up, down):  4.385E-02 0.000E+00

     total cpu time spent up to now is    13307.7 secs

     total energy              =   -5898.12230910 Ry
     estimated scf accuracy    <       0.20590593 Ry

     iteration # 25     ecut=    80.00 Ry     beta= 0.50
     Davidson diagonalization with overlap
     ethr =  6.25E-05,  avg # of iterations =  2.8

     negative rho (up, down):  4.373E-02 0.000E+00

     total cpu time spent up to now is    13655.1 secs

     total energy              =   -5897.98512918 Ry
     estimated scf accuracy    <       5.05871882 Ry

     iteration # 26     ecut=    80.00 Ry     beta= 0.50
     Davidson diagonalization with overlap
     ethr =  6.25E-05,  avg # of iterations =  2.0

     negative rho (up, down):  4.361E-02 0.000E+00

     total cpu time spent up to now is    13978.9 secs

     total energy              =   -5898.12503946 Ry
     estimated scf accuracy    <       0.32131847 Ry

     iteration # 27     ecut=    80.00 Ry     beta= 0.50
     Davidson diagonalization with overlap
     ethr =  6.25E-05,  avg # of iterations =  2.0

     negative rho (up, down):  4.360E-02 0.000E+00

     total cpu time spent up to now is    14300.2 secs

     total energy              =   -5898.08977147 Ry
     estimated scf accuracy    <       1.08198264 Ry

     iteration # 28     ecut=    80.00 Ry     beta= 0.50
     Davidson diagonalization with overlap
     ethr =  6.25E-05,  avg # of iterations =  2.0

     negative rho (up, down):  4.366E-02 0.000E+00

     total cpu time spent up to now is    15593.8 secs

     total energy              =   -5898.07930885 Ry
     estimated scf accuracy    <       0.99880308 Ry

     iteration # 29     ecut=    80.00 Ry     beta= 0.50
     Davidson diagonalization with overlap
     ethr =  6.25E-05,  avg # of iterations =  2.0

     negative rho (up, down):  4.361E-02 0.000E+00

     total cpu time spent up to now is    15919.3 secs

     total energy              =   -5898.12698334 Ry
     estimated scf accuracy    <       0.35170512 Ry

     iteration # 30     ecut=    80.00 Ry     beta= 0.50
     Davidson diagonalization with overlap
     ethr =  6.25E-05,  avg # of iterations =  1.8

     negative rho (up, down):  4.363E-02 0.000E+00

     total cpu time spent up to now is    16235.9 secs

     total energy              =   -5898.13908623 Ry
     estimated scf accuracy    <       0.08535750 Ry

     iteration # 31     ecut=    80.00 Ry     beta= 0.50
     Davidson diagonalization with overlap
     ethr =  2.72E-05,  avg # of iterations =  5.2

     negative rho (up, down):  4.364E-02 0.000E+00

     total cpu time spent up to now is    16564.6 secs

     total energy              =   -5898.13904805 Ry
     estimated scf accuracy    <       0.15488379 Ry

     iteration # 32     ecut=    80.00 Ry     beta= 0.50
     Davidson diagonalization with overlap
     ethr =  2.72E-05,  avg # of iterations =  2.0

     negative rho (up, down):  4.372E-02 0.000E+00

     total cpu time spent up to now is    16888.3 secs

     total energy              =   -5898.14438919 Ry
     estimated scf accuracy    <       0.01222971 Ry

     iteration # 33     ecut=    80.00 Ry     beta= 0.50
     Davidson diagonalization with overlap
     c_bands:  2 eigenvalues not converged
     ethr =  3.89E-06,  avg # of iterations = 19.5

     negative rho (up, down):  4.373E-02 0.000E+00

     total cpu time spent up to now is    17345.6 secs

     total energy              =   -5898.14179742 Ry
     estimated scf accuracy    <       0.07000430 Ry

     iteration # 34     ecut=    80.00 Ry     beta= 0.50
     Davidson diagonalization with overlap
     ethr =  3.89E-06,  avg # of iterations =  1.2

     negative rho (up, down):  4.379E-02 0.000E+00

     total cpu time spent up to now is    17645.6 secs

     total energy              =   -5898.14348666 Ry
     estimated scf accuracy    <       0.01912731 Ry

     iteration # 35     ecut=    80.00 Ry     beta= 0.50
     Davidson diagonalization with overlap
     ethr =  3.89E-06,  avg # of iterations =  3.0

     negative rho (up, down):  4.378E-02 0.000E+00

     total cpu time spent up to now is    18018.0 secs

     total energy              =   -5898.13364524 Ry
     estimated scf accuracy    <       0.35936693 Ry

     iteration # 36     ecut=    80.00 Ry     beta= 0.50
     Davidson diagonalization with overlap
     ethr =  3.89E-06,  avg # of iterations =  2.0

     negative rho (up, down):  4.382E-02 0.000E+00

     total cpu time spent up to now is    18354.1 secs

     total energy              =   -5898.14390293 Ry
     estimated scf accuracy    <       0.03409260 Ry

     iteration # 37     ecut=    80.00 Ry     beta= 0.50
     Davidson diagonalization with overlap
     ethr =  3.89E-06,  avg # of iterations =  1.0

     negative rho (up, down):  4.381E-02 0.000E+00

     total cpu time spent up to now is    18641.4 secs

     total energy              =   -5898.14383576 Ry
     estimated scf accuracy    <       0.02394119 Ry

     iteration # 38     ecut=    80.00 Ry     beta= 0.50
     Davidson diagonalization with overlap
     ethr =  3.89E-06,  avg # of iterations =  2.0

     negative rho (up, down):  4.389E-02 0.000E+00

     total cpu time spent up to now is    18976.2 secs

     total energy              =   -5898.14204247 Ry
     estimated scf accuracy    <       0.09542626 Ry

     iteration # 39     ecut=    80.00 Ry     beta= 0.50
     Davidson diagonalization with overlap
     ethr =  3.89E-06,  avg # of iterations =  1.8

     negative rho (up, down):  4.390E-02 0.000E+00

     total cpu time spent up to now is    19292.4 secs

     total energy              =   -5898.14509580 Ry
     estimated scf accuracy    <       0.01294993 Ry

     iteration # 40     ecut=    80.00 Ry     beta= 0.50
     Davidson diagonalization with overlap
     ethr =  3.89E-06,  avg # of iterations =  1.0

     negative rho (up, down):  4.392E-02 0.000E+00

     total cpu time spent up to now is    19578.7 secs

     total energy              =   -5898.14570743 Ry
     estimated scf accuracy    <       0.00312934 Ry

     iteration # 41     ecut=    80.00 Ry     beta= 0.50
     Davidson diagonalization with overlap
     ethr =  9.97E-07,  avg # of iterations =  2.0

     negative rho (up, down):  4.391E-02 0.000E+00

     total cpu time spent up to now is    19902.3 secs

     total energy              =   -5898.14575245 Ry
     estimated scf accuracy    <       0.00357784 Ry

     iteration # 42     ecut=    80.00 Ry     beta= 0.50
     Davidson diagonalization with overlap
     ethr =  9.97E-07,  avg # of iterations =  1.0

     negative rho (up, down):  4.393E-02 0.000E+00

     total cpu time spent up to now is    20189.1 secs

     total energy              =   -5898.14589820 Ry
     estimated scf accuracy    <       0.00171465 Ry

     iteration # 43     ecut=    80.00 Ry     beta= 0.50
     Davidson diagonalization with overlap
     ethr =  5.46E-07,  avg # of iterations =  2.0

     negative rho (up, down):  4.393E-02 0.000E+00

     total cpu time spent up to now is    20512.0 secs

     total energy              =   -5898.14579903 Ry
     estimated scf accuracy    <       0.00369698 Ry

     iteration # 44     ecut=    80.00 Ry     beta= 0.50
     Davidson diagonalization with overlap
     ethr =  5.46E-07,  avg # of iterations =  1.2

     negative rho (up, down):  4.395E-02 0.000E+00

     total cpu time spent up to now is    20806.3 secs

     total energy              =   -5898.14598480 Ry
     estimated scf accuracy    <       0.00068716 Ry

     iteration # 45     ecut=    80.00 Ry     beta= 0.50
     Davidson diagonalization with overlap
     ethr =  2.19E-07,  avg # of iterations =  2.0

     negative rho (up, down):  4.398E-02 0.000E+00

     total cpu time spent up to now is    21128.3 secs

     total energy              =   -5898.14596468 Ry
     estimated scf accuracy    <       0.00145266 Ry

     iteration # 46     ecut=    80.00 Ry     beta= 0.50
     Davidson diagonalization with overlap
     ethr =  2.19E-07,  avg # of iterations =  2.0

     negative rho (up, down):  4.399E-02 0.000E+00

     total cpu time spent up to now is    21450.3 secs

     total energy              =   -5898.14593951 Ry
     estimated scf accuracy    <       0.00153207 Ry

     iteration # 47     ecut=    80.00 Ry     beta= 0.50
     Davidson diagonalization with overlap
     ethr =  2.19E-07,  avg # of iterations =  2.0

     negative rho (up, down):  4.405E-02 0.000E+00

     total cpu time spent up to now is    21773.1 secs

     total energy              =   -5898.14588058 Ry
     estimated scf accuracy    <       0.00466433 Ry

     iteration # 48     ecut=    80.00 Ry     beta= 0.50
     Davidson diagonalization with overlap
     ethr =  2.19E-07,  avg # of iterations =  2.0

     negative rho (up, down):  4.406E-02 0.000E+00

     total cpu time spent up to now is    22093.4 secs

     total energy              =   -5898.14601438 Ry
     estimated scf accuracy    <       0.00079446 Ry

     iteration # 49     ecut=    80.00 Ry     beta= 0.50
     Davidson diagonalization with overlap
     ethr =  2.19E-07,  avg # of iterations =  2.0

     negative rho (up, down):  4.406E-02 0.000E+00

     total cpu time spent up to now is    22463.1 secs

     total energy              =   -5898.14601124 Ry
     estimated scf accuracy    <       0.00095705 Ry

     iteration # 50     ecut=    80.00 Ry     beta= 0.50
     Davidson diagonalization with overlap
     ethr =  2.19E-07,  avg # of iterations =  1.0

     negative rho (up, down):  4.407E-02 0.000E+00

     total cpu time spent up to now is    22751.4 secs

     total energy              =   -5898.14600141 Ry
     estimated scf accuracy    <       0.00168707 Ry

     iteration # 51     ecut=    80.00 Ry     beta= 0.50
     Davidson diagonalization with overlap
     ethr =  2.19E-07,  avg # of iterations =  1.2

     negative rho (up, down):  4.407E-02 0.000E+00

     total cpu time spent up to now is    23046.9 secs

     total energy              =   -5898.14603599 Ry
     estimated scf accuracy    <       0.00074968 Ry

     iteration # 52     ecut=    80.00 Ry     beta= 0.50
     Davidson diagonalization with overlap
     ethr =  2.19E-07,  avg # of iterations =  1.0

     negative rho (up, down):  4.411E-02 0.000E+00

     total cpu time spent up to now is    23338.3 secs

     total energy              =   -5898.14605569 Ry
     estimated scf accuracy    <       0.00067822 Ry

     iteration # 53     ecut=    80.00 Ry     beta= 0.50
     Davidson diagonalization with overlap
     ethr =  2.16E-07,  avg # of iterations =  1.0

     negative rho (up, down):  4.411E-02 0.000E+00

     total cpu time spent up to now is    23639.2 secs

     total energy              =   -5898.14606883 Ry
     estimated scf accuracy    <       0.00021500 Ry

     iteration # 54     ecut=    80.00 Ry     beta= 0.50
     Davidson diagonalization with overlap
     ethr =  6.85E-08,  avg # of iterations =  2.0

     negative rho (up, down):  4.411E-02 0.000E+00

     total cpu time spent up to now is    23983.8 secs

     total energy              =   -5898.14607865 Ry
     estimated scf accuracy    <       0.00007175 Ry

     iteration # 55     ecut=    80.00 Ry     beta= 0.50
     Davidson diagonalization with overlap
     ethr =  2.29E-08,  avg # of iterations =  6.5

     negative rho (up, down):  4.410E-02 0.000E+00

     total cpu time spent up to now is    24344.2 secs

     total energy              =   -5898.14608745 Ry
     estimated scf accuracy    <       0.00011631 Ry

     iteration # 56     ecut=    80.00 Ry     beta= 0.50
     Davidson diagonalization with overlap
     ethr =  2.29E-08,  avg # of iterations =  1.0

     negative rho (up, down):  4.409E-02 0.000E+00

     total cpu time spent up to now is    26062.1 secs

     total energy              =   -5898.14608671 Ry
     estimated scf accuracy    <       0.00009377 Ry

     iteration # 57     ecut=    80.00 Ry     beta= 0.50
     Davidson diagonalization with overlap
     ethr =  2.29E-08,  avg # of iterations =  1.0

     negative rho (up, down):  4.405E-02 0.000E+00

     total cpu time spent up to now is    26362.4 secs

     total energy              =   -5898.14608065 Ry
     estimated scf accuracy    <       0.00017285 Ry

     iteration # 58     ecut=    80.00 Ry     beta= 0.50
     Davidson diagonalization with overlap
     ethr =  2.29E-08,  avg # of iterations =  2.0

     negative rho (up, down):  4.402E-02 0.000E+00

     total cpu time spent up to now is    26703.1 secs

     total energy              =   -5898.14605873 Ry
     estimated scf accuracy    <       0.00062185 Ry

     iteration # 59     ecut=    80.00 Ry     beta= 0.50
     Davidson diagonalization with overlap
     ethr =  2.29E-08,  avg # of iterations =  2.0

     negative rho (up, down):  4.401E-02 0.000E+00

     total cpu time spent up to now is    27036.9 secs

     total energy              =   -5898.14606262 Ry
     estimated scf accuracy    <       0.00055647 Ry

     iteration # 60     ecut=    80.00 Ry     beta= 0.50
     Davidson diagonalization with overlap
     ethr =  2.29E-08,  avg # of iterations =  2.0

     negative rho (up, down):  4.402E-02 0.000E+00

     total cpu time spent up to now is    30375.7 secs

     total energy              =   -5898.14608016 Ry
     estimated scf accuracy    <       0.00013189 Ry

     iteration # 61     ecut=    80.00 Ry     beta= 0.50
     Davidson diagonalization with overlap
     ethr =  2.29E-08,  avg # of iterations =  1.0

     negative rho (up, down):  4.402E-02 0.000E+00

     total cpu time spent up to now is    32814.3 secs

     total energy              =   -5898.14608224 Ry
     estimated scf accuracy    <       0.00011079 Ry

     iteration # 62     ecut=    80.00 Ry     beta= 0.50
     Davidson diagonalization with overlap
     ethr =  2.29E-08,  avg # of iterations =  1.0

     negative rho (up, down):  4.401E-02 0.000E+00

     total cpu time spent up to now is    33104.7 secs

     total energy              =   -5898.14608577 Ry
     estimated scf accuracy    <       0.00004007 Ry

     iteration # 63     ecut=    80.00 Ry     beta= 0.50
     Davidson diagonalization with overlap
     ethr =  1.28E-08,  avg # of iterations =  1.0

     negative rho (up, down):  4.402E-02 0.000E+00

     total cpu time spent up to now is    33393.5 secs

     total energy              =   -5898.14608766 Ry
     estimated scf accuracy    <       0.00001481 Ry

     iteration # 64     ecut=    80.00 Ry     beta= 0.50
     Davidson diagonalization with overlap
     ethr =  4.72E-09,  avg # of iterations =  1.5

     negative rho (up, down):  4.403E-02 0.000E+00

     total cpu time spent up to now is    33699.9 secs

     total energy              =   -5898.14608747 Ry
     estimated scf accuracy    <       0.00000970 Ry

     iteration # 65     ecut=    80.00 Ry     beta= 0.50
     Davidson diagonalization with overlap
     ethr =  3.09E-09,  avg # of iterations =  2.0

     negative rho (up, down):  4.403E-02 0.000E+00

     total cpu time spent up to now is    36310.0 secs

     total energy              =   -5898.14608506 Ry
     estimated scf accuracy    <       0.00005922 Ry

     iteration # 66     ecut=    80.00 Ry     beta= 0.50
     Davidson diagonalization with overlap
     ethr =  3.09E-09,  avg # of iterations =  2.0

     negative rho (up, down):  4.403E-02 0.000E+00

     total cpu time spent up to now is    38143.8 secs

     total energy              =   -5898.14608611 Ry
     estimated scf accuracy    <       0.00004410 Ry

     iteration # 67     ecut=    80.00 Ry     beta= 0.50
     Davidson diagonalization with overlap
     ethr =  3.09E-09,  avg # of iterations =  2.0

     negative rho (up, down):  4.403E-02 0.000E+00

     total cpu time spent up to now is    38470.2 secs

     total energy              =   -5898.14608710 Ry
     estimated scf accuracy    <       0.00004057 Ry

     iteration # 68     ecut=    80.00 Ry     beta= 0.50
     Davidson diagonalization with overlap
     ethr =  3.09E-09,  avg # of iterations =  1.0

     negative rho (up, down):  4.404E-02 0.000E+00

     total cpu time spent up to now is    38760.6 secs

     total energy              =   -5898.14608837 Ry
     estimated scf accuracy    <       0.00000559 Ry

     iteration # 69     ecut=    80.00 Ry     beta= 0.50
     Davidson diagonalization with overlap
     ethr =  1.78E-09,  avg # of iterations =  1.2

     negative rho (up, down):  4.405E-02 0.000E+00

     total cpu time spent up to now is    40436.3 secs

     total energy              =   -5898.14608847 Ry
     estimated scf accuracy    <       0.00000227 Ry

     iteration # 70     ecut=    80.00 Ry     beta= 0.50
     Davidson diagonalization with overlap
     ethr =  7.24E-10,  avg # of iterations =  2.0

     negative rho (up, down):  4.406E-02 0.000E+00

     total cpu time spent up to now is    41705.8 secs

     total energy              =   -5898.14608837 Ry
     estimated scf accuracy    <       0.00000559 Ry

     iteration # 71     ecut=    80.00 Ry     beta= 0.50
     Davidson diagonalization with overlap
     ethr =  7.24E-10,  avg # of iterations =  2.0

     negative rho (up, down):  4.407E-02 0.000E+00

     total cpu time spent up to now is    42034.3 secs

     total energy              =   -5898.14608844 Ry
     estimated scf accuracy    <       0.00000267 Ry

     iteration # 72     ecut=    80.00 Ry     beta= 0.50
     Davidson diagonalization with overlap
     ethr =  7.24E-10,  avg # of iterations =  2.0

     negative rho (up, down):  4.408E-02 0.000E+00

     total cpu time spent up to now is    43318.1 secs

     total energy              =   -5898.14608828 Ry
     estimated scf accuracy    <       0.00000451 Ry

     iteration # 73     ecut=    80.00 Ry     beta= 0.50
     Davidson diagonalization with overlap
     ethr =  7.24E-10,  avg # of iterations =  2.0

     negative rho (up, down):  4.408E-02 0.000E+00

     total cpu time spent up to now is    43637.2 secs

     total energy              =   -5898.14608822 Ry
     estimated scf accuracy    <       0.00000378 Ry

     iteration # 74     ecut=    80.00 Ry     beta= 0.50
     Davidson diagonalization with overlap
     ethr =  7.24E-10,  avg # of iterations =  2.0

     negative rho (up, down):  4.408E-02 0.000E+00

     total cpu time spent up to now is    43973.5 secs

     total energy              =   -5898.14608799 Ry
     estimated scf accuracy    <       0.00001067 Ry

     iteration # 75     ecut=    80.00 Ry     beta= 0.50
     Davidson diagonalization with overlap
     ethr =  7.24E-10,  avg # of iterations =  1.2

     negative rho (up, down):  4.409E-02 0.000E+00

     total cpu time spent up to now is    45363.4 secs

     total energy              =   -5898.14608847 Ry
     estimated scf accuracy    <       0.00000289 Ry

     iteration # 76     ecut=    80.00 Ry     beta= 0.50
     Davidson diagonalization with overlap
     ethr =  7.24E-10,  avg # of iterations =  1.0

     negative rho (up, down):  4.409E-02 0.000E+00

     total cpu time spent up to now is    46587.4 secs

     total energy              =   -5898.14608860 Ry
     estimated scf accuracy    <       0.00000048 Ry

     iteration # 77     ecut=    80.00 Ry     beta= 0.50
     Davidson diagonalization with overlap
     ethr =  1.53E-10,  avg # of iterations =  2.0

     negative rho (up, down):  4.409E-02 0.000E+00

     total cpu time spent up to now is    48894.3 secs

     total energy              =   -5898.14608855 Ry
     estimated scf accuracy    <       0.00000214 Ry

     iteration # 78     ecut=    80.00 Ry     beta= 0.50
     Davidson diagonalization with overlap
     ethr =  1.53E-10,  avg # of iterations =  2.0

     negative rho (up, down):  4.409E-02 0.000E+00

     total cpu time spent up to now is    51154.6 secs

     total energy              =   -5898.14608850 Ry
     estimated scf accuracy    <       0.00000475 Ry

     iteration # 79     ecut=    80.00 Ry     beta= 0.50
     Davidson diagonalization with overlap
     ethr =  1.53E-10,  avg # of iterations =  2.0

     negative rho (up, down):  4.409E-02 0.000E+00

     total cpu time spent up to now is    52585.4 secs

     total energy              =   -5898.14608861 Ry
     estimated scf accuracy    <       0.00000127 Ry

     iteration # 80     ecut=    80.00 Ry     beta= 0.50
     Davidson diagonalization with overlap
     ethr =  1.53E-10,  avg # of iterations =  1.0

     negative rho (up, down):  4.409E-02 0.000E+00

     total cpu time spent up to now is    54035.8 secs

     total energy              =   -5898.14608865 Ry
     estimated scf accuracy    <       0.00000073 Ry

     iteration # 81     ecut=    80.00 Ry     beta= 0.50
     Davidson diagonalization with overlap
     ethr =  1.53E-10,  avg # of iterations =  1.0

     negative rho (up, down):  4.409E-02 0.000E+00

     total cpu time spent up to now is    55234.3 secs

     total energy              =   -5898.14608866 Ry
     estimated scf accuracy    <       0.00000026 Ry

     iteration # 82     ecut=    80.00 Ry     beta= 0.50
     Davidson diagonalization with overlap
     ethr =  8.18E-11,  avg # of iterations =  2.0

     negative rho (up, down):  4.409E-02 0.000E+00

     total cpu time spent up to now is    57342.6 secs

     total energy              =   -5898.14608860 Ry
     estimated scf accuracy    <       0.00000118 Ry

     iteration # 83     ecut=    80.00 Ry     beta= 0.50
     Davidson diagonalization with overlap
     ethr =  8.18E-11,  avg # of iterations =  2.0

     negative rho (up, down):  4.409E-02 0.000E+00

     total cpu time spent up to now is    58684.5 secs

     total energy              =   -5898.14608859 Ry
     estimated scf accuracy    <       0.00000173 Ry

     iteration # 84     ecut=    80.00 Ry     beta= 0.50
     Davidson diagonalization with overlap
     ethr =  8.18E-11,  avg # of iterations =  1.0

     negative rho (up, down):  4.409E-02 0.000E+00

     total cpu time spent up to now is    58979.6 secs

     total energy              =   -5898.14608866 Ry
     estimated scf accuracy    <       0.00000035 Ry

     iteration # 85     ecut=    80.00 Ry     beta= 0.50
     Davidson diagonalization with overlap
     ethr =  8.18E-11,  avg # of iterations =  2.0

     negative rho (up, down):  4.409E-02 0.000E+00

     total cpu time spent up to now is    60234.2 secs

     total energy              =   -5898.14608860 Ry
     estimated scf accuracy    <       0.00000053 Ry

     iteration # 86     ecut=    80.00 Ry     beta= 0.50
     Davidson diagonalization with overlap
     ethr =  8.18E-11,  avg # of iterations =  2.0

     negative rho (up, down):  4.409E-02 0.000E+00

     total cpu time spent up to now is    63293.2 secs

     total energy              =   -5898.14608841 Ry
     estimated scf accuracy    <       0.00000524 Ry

     iteration # 87     ecut=    80.00 Ry     beta= 0.50
     Davidson diagonalization with overlap
     ethr =  8.18E-11,  avg # of iterations =  2.0

     negative rho (up, down):  4.410E-02 0.000E+00

     total cpu time spent up to now is    64615.6 secs

     total energy              =   -5898.14608850 Ry
     estimated scf accuracy    <       0.00000320 Ry

     iteration # 88     ecut=    80.00 Ry     beta= 0.50
     Davidson diagonalization with overlap
     ethr =  8.18E-11,  avg # of iterations =  2.0

     negative rho (up, down):  4.410E-02 0.000E+00

     total cpu time spent up to now is    67014.5 secs

     total energy              =   -5898.14608857 Ry
     estimated scf accuracy    <       0.00000252 Ry

     iteration # 89     ecut=    80.00 Ry     beta= 0.50
     Davidson diagonalization with overlap
     ethr =  8.18E-11,  avg # of iterations =  1.8

     negative rho (up, down):  4.410E-02 0.000E+00

     total cpu time spent up to now is    68395.2 secs

     total energy              =   -5898.14608861 Ry
     estimated scf accuracy    <       0.00000081 Ry

     iteration # 90     ecut=    80.00 Ry     beta= 0.50
     Davidson diagonalization with overlap
     ethr =  8.18E-11,  avg # of iterations =  2.0

     negative rho (up, down):  4.410E-02 0.000E+00

     total cpu time spent up to now is    70639.8 secs

     total energy              =   -5898.14608855 Ry
     estimated scf accuracy    <       0.00000205 Ry

     iteration # 91     ecut=    80.00 Ry     beta= 0.50
     Davidson diagonalization with overlap
     ethr =  8.18E-11,  avg # of iterations =  2.0

     negative rho (up, down):  4.410E-02 0.000E+00

     total cpu time spent up to now is    72248.7 secs

     total energy              =   -5898.14608863 Ry
     estimated scf accuracy    <       0.00000069 Ry

     iteration # 92     ecut=    80.00 Ry     beta= 0.50
     Davidson diagonalization with overlap
     ethr =  8.18E-11,  avg # of iterations =  1.0

     negative rho (up, down):  4.410E-02 0.000E+00

     total cpu time spent up to now is    73364.8 secs

     total energy              =   -5898.14608864 Ry
     estimated scf accuracy    <       0.00000044 Ry

     iteration # 93     ecut=    80.00 Ry     beta= 0.50
     Davidson diagonalization with overlap
     ethr =  8.18E-11,  avg # of iterations =  1.5

     negative rho (up, down):  4.410E-02 0.000E+00

     total cpu time spent up to now is    75186.4 secs

     total energy              =   -5898.14608863 Ry
     estimated scf accuracy    <       0.00000064 Ry

     iteration # 94     ecut=    80.00 Ry     beta= 0.50
     Davidson diagonalization with overlap
     ethr =  8.18E-11,  avg # of iterations =  1.0

     negative rho (up, down):  4.410E-02 0.000E+00

     total cpu time spent up to now is    76465.6 secs

     total energy              =   -5898.14608866 Ry
     estimated scf accuracy    <       0.00000010 Ry

     iteration # 95     ecut=    80.00 Ry     beta= 0.50
     Davidson diagonalization with overlap
     ethr =  3.24E-11,  avg # of iterations =  2.0

     negative rho (up, down):  4.410E-02 0.000E+00

     total cpu time spent up to now is    76801.6 secs

     total energy              =   -5898.14608866 Ry
     estimated scf accuracy    <       0.00000013 Ry

     iteration # 96     ecut=    80.00 Ry     beta= 0.50
     Davidson diagonalization with overlap
     ethr =  3.24E-11,  avg # of iterations =  1.0

     negative rho (up, down):  4.410E-02 0.000E+00

     total cpu time spent up to now is    77510.7 secs

     total energy              =   -5898.14608866 Ry
     estimated scf accuracy    <       0.00000010 Ry

     iteration # 97     ecut=    80.00 Ry     beta= 0.50
     Davidson diagonalization with overlap
     ethr =  3.19E-11,  avg # of iterations =  1.0

     negative rho (up, down):  4.410E-02 0.000E+00

     total cpu time spent up to now is    78716.4 secs

     End of self-consistent calculation

          k = 0.2500 0.2500 0.2500 ( 59434 PWs)   bands (ev):

   -52.0743 -51.7255 -50.7769 -50.7241 -50.2985 -49.9566 -49.4359 -47.6264
   -35.8943 -32.9846 -31.7186 -30.5657 -30.0672 -29.7077 -28.6176 -28.0689
   -27.5278 -27.2475 -27.1954 -27.0766 -26.9596 -26.8541 -26.8234 -26.6951
   -26.6552 -26.3873 -26.3341 -26.1874 -26.0721 -26.0452 -25.8323 -25.3158
   -25.0513 -24.3290 -24.1911 -23.3014 -21.8569 -21.3138 -21.1262 -20.1680
   -19.9179 -18.9784 -18.6703 -17.8172 -16.2271 -15.8615 -14.5954 -14.4021
   -12.5592 -12.0165 -11.9564 -11.6989 -11.3571 -11.0418 -10.8445 -10.6486
   -10.5650 -10.3832  -9.6675  -9.3718  -9.2863  -9.1824  -9.0968  -8.9478
    -8.7435  -8.6263  -8.5480  -8.5125  -8.4238  -8.3181  -8.0673  -7.6559
    -7.3725  -7.0975  -6.8918  -6.4098  -6.0019  -5.9750  -5.6832  -5.4247
    -5.1840  -5.0715  -4.8279  -4.6388  -4.5381  -4.4961  -4.2635  -3.9673
    -3.8209  -3.6177  -3.3019  -3.2364  -2.5348  -2.2790  -1.5963  -1.3755
    -1.0397  -0.9771  -0.5414  -0.3139  -0.1466  -0.0179   0.3590   0.5612
     0.6537   0.7154   1.6175   1.7271   2.2469   2.3609   2.4019   2.6382
     3.1345   3.2470   3.4091   3.4436   3.5297   3.6302   3.7291   4.0880
     4.2189   4.3081   4.3657   4.4363   4.5340   4.7011   4.7764   4.8829
     5.0883   5.2119   5.3013   5.3626   5.4369   5.5274   5.5556   5.5965
     5.6965   5.7962   5.8245   5.9252   6.0150   6.0844   6.1235   6.1773
     6.2135   6.3128   6.3568   6.4711   6.5489   6.6008   6.6616   6.7536
     6.8394   6.9447   6.9749   7.0566   7.1146   7.1852   7.2694   7.3375
     7.3781   7.4817   7.5878   7.6574   7.6948   7.7330   7.8734   7.9143
     7.9458   8.0654   8.1074   8.2437   8.3193   8.3685   8.4893   8.5761
     8.7055   8.7840   8.9005   8.9443   9.0861   9.1373   9.2288   9.3500
     9.4627   9.5923   9.8589   9.8938

          k =-0.2500-0.2500 0.2500 ( 59434 PWs)   bands (ev):

   -52.0743 -51.7255 -50.7769 -50.7241 -50.2985 -49.9566 -49.4359 -47.6264
   -35.8943 -32.9846 -31.7186 -30.5657 -30.0672 -29.7077 -28.6176 -28.0689
   -27.5278 -27.2476 -27.1954 -27.0766 -26.9596 -26.8541 -26.8234 -26.6951
   -26.6552 -26.3873 -26.3341 -26.1874 -26.0721 -26.0452 -25.8323 -25.3158
   -25.0513 -24.3290 -24.1911 -23.3014 -21.8569 -21.3139 -21.1262 -20.1679
   -19.9179 -18.9785 -18.6703 -17.8172 -16.2272 -15.8615 -14.5954 -14.4021
   -12.5597 -12.0140 -11.9594 -11.6977 -11.3572 -11.0421 -10.8455 -10.6485
   -10.5647 -10.3818  -9.6686  -9.3725  -9.2873  -9.1845  -9.0887  -8.9528
    -8.7403  -8.6215  -8.5501  -8.5111  -8.4327  -8.3179  -8.0672  -7.6513
    -7.3761  -7.1044  -6.8780  -6.4151  -6.0026  -5.9749  -5.6880  -5.4262
    -5.1840  -5.0652  -4.8033  -4.6463  -4.5525  -4.5061  -4.2587  -3.9612
    -3.8176  -3.6259  -3.3032  -3.2371  -2.5320  -2.2806  -1.5966  -1.3706
    -1.0383  -0.9807  -0.5298  -0.3192  -0.1476  -0.0237   0.3597   0.5616
     0.6571   0.7119   1.6169   1.7282   2.2506   2.3399   2.4197   2.6344
     3.1568   3.2249   3.3936   3.4623   3.5444   3.6295   3.7123   4.1055
     4.2109   4.2794   4.3580   4.4859   4.5332   4.6737   4.7387   4.8992
     5.1081   5.2206   5.2960   5.3817   5.4341   5.5121   5.5966   5.6176
     5.6872   5.7432   5.8416   5.9437   6.0086   6.0449   6.1155   6.1821
     6.2143   6.3038   6.3586   6.4740   6.5672   6.6190   6.6832   6.7781
     6.8684   6.9192   6.9787   7.0732   7.1004   7.1516   7.2203   7.2875
     7.4062   7.4462   7.5246   7.6488   7.7272   7.7690   7.8327   7.9372
     8.0067   8.0197   8.1481   8.2222   8.3198   8.4208   8.4927   8.6194
     8.6781   8.8014   8.8568   8.8895   9.0811   9.1889   9.2541   9.3315
     9.5482   9.6767   9.8152   9.8822

          k =-0.2500 0.2500-0.2500 ( 59434 PWs)   bands (ev):

   -52.0743 -51.7255 -50.7769 -50.7241 -50.2985 -49.9566 -49.4359 -47.6264
   -35.8943 -32.9846 -31.7186 -30.5657 -30.0672 -29.7077 -28.6176 -28.0689
   -27.5278 -27.2475 -27.1954 -27.0766 -26.9596 -26.8541 -26.8234 -26.6951
   -26.6552 -26.3873 -26.3341 -26.1874 -26.0721 -26.0452 -25.8323 -25.3158
   -25.0513 -24.3290 -24.1911 -23.3014 -21.8569 -21.3139 -21.1262 -20.1679
   -19.9179 -18.9785 -18.6703 -17.8172 -16.2272 -15.8615 -14.5954 -14.4021
   -12.5593 -12.0166 -11.9564 -11.6990 -11.3572 -11.0464 -10.8388 -10.6453
   -10.5650 -10.3861  -9.6683  -9.3736  -9.2904  -9.1848  -9.0885  -8.9514
    -8.7421  -8.6214  -8.5497  -8.5101  -8.4309  -8.3194  -8.0628  -7.6514
    -7.3760  -7.1044  -6.8788  -6.4140  -6.0072  -5.9726  -5.6868  -5.4223
    -5.1855  -5.0768  -4.8155  -4.6403  -4.5444  -4.4980  -4.2602  -3.9610
    -3.8183  -3.6237  -3.3062  -3.2337  -2.5325  -2.2803  -1.5988  -1.3729
    -1.0418  -0.9776  -0.5298  -0.3145  -0.1491  -0.0242   0.3590   0.5612
     0.6571   0.7128   1.6170   1.7301   2.2483   2.3614   2.3958   2.6403
     3.1372   3.2446   3.4002   3.4507   3.5350   3.6356   3.7181   4.0855
     4.2103   4.2900   4.3615   4.4784   4.5391   4.6900   4.7392   4.8917
     5.1204   5.2068   5.3058   5.3792   5.4587   5.4955   5.5810   5.6170
     5.6791   5.7552   5.8427   5.9356   5.9964   6.0664   6.1080   6.1784
     6.2361   6.2703   6.3653   6.4983   6.5456   6.6406   6.6944   6.7383
     6.8123   6.9196   6.9859   7.0083   7.1373   7.1817   7.2710   7.3311
     7.4080   7.4764   7.5286   7.6164   7.7217   7.7977   7.8540   7.9115
     7.9669   8.0186   8.1052   8.2611   8.3088   8.3813   8.5331   8.6211
     8.6735   8.7671   8.8263   8.9958   9.1052   9.1378   9.2388   9.3039
     9.5354   9.6517   9.8457   9.9129

          k = 0.2500-0.2500-0.2500 ( 59434 PWs)   bands (ev):

   -52.0743 -51.7255 -50.7769 -50.7241 -50.2985 -49.9566 -49.4359 -47.6264
   -35.8943 -32.9846 -31.7186 -30.5657 -30.0672 -29.7077 -28.6176 -28.0689
   -27.5278 -27.2476 -27.1954 -27.0766 -26.9596 -26.8541 -26.8234 -26.6951
   -26.6552 -26.3873 -26.3341 -26.1874 -26.0721 -26.0452 -25.8323 -25.3158
   -25.0513 -24.3290 -24.1911 -23.3014 -21.8569 -21.3138 -21.1262 -20.1680
   -19.9179 -18.9784 -18.6703 -17.8172 -16.2272 -15.8615 -14.5954 -14.4021
   -12.5596 -12.0141 -11.9593 -11.6980 -11.3573 -11.0469 -10.8379 -10.6454
   -10.5646 -10.3877  -9.6677  -9.3754  -9.2851  -9.1822  -9.0955  -8.9489
    -8.7461  -8.6267  -8.5492  -8.5074  -8.4246  -8.3176  -8.0630  -7.6560
    -7.3731  -7.0979  -6.8955  -6.4105  -5.9989  -5.9802  -5.6803  -5.4256
    -5.1844  -5.0539  -4.8352  -4.6331  -4.5581  -4.4972  -4.2538  -3.9694
    -3.8209  -3.6180  -3.3050  -3.2348  -2.5352  -2.2785  -1.5941  -1.3746
    -1.0377  -0.9768  -0.5408  -0.3185  -0.1483  -0.0139   0.3606   0.5610
     0.6527   0.7156   1.6147   1.7265   2.2541   2.3347   2.4227   2.6335
     3.1576   3.2184   3.4042   3.4731   3.5255   3.6338   3.7229   4.1077
     4.2092   4.2997   4.3539   4.4345   4.5340   4.6768   4.7825   4.8911
     5.0884   5.2217   5.3100   5.3856   5.4362   5.5133   5.5528   5.5887
     5.7004   5.7787   5.8531   5.9191   5.9897   6.0764   6.1232   6.1888
     6.2197   6.2827   6.3696   6.4808   6.5659   6.6505   6.6587   6.7517
     6.8508   6.8875   6.9774   6.9839   7.0979   7.1956   7.2756   7.3347
     7.4030   7.4809   7.6009   7.6750   7.7219   7.7638   7.8576   7.9377
     7.9535   8.0275   8.1269   8.1587   8.2805   8.3868   8.4797   8.6339
     8.6765   8.8119   8.8642   9.0234   9.0795   9.1280   9.2406   9.3105
     9.4673   9.6418   9.8666   9.8928

     the Fermi energy is     7.1451 ev

!    total energy              =   -5898.14608859 Ry

     total all-electron energy =   -147273.752771 Ry
     estimated scf accuracy    <       0.00000010 Ry
     smearing contrib. (-TS)   =      -0.00072735 Ry
     internal energy E=F+TS    =   -5898.14536124 Ry

     The total energy is F=E-TS. E is the sum of the following terms:
     one-electron contribution =   -2180.24232139 Ry
     hartree contribution      =    1233.60435849 Ry
     xc contribution           =    -494.27614940 Ry
     ewald contribution        =    -713.00633334 Ry
     one-center paw contrib.   =   -3744.22491559 Ry

     convergence has been achieved in  97 iterations

     negative rho (up, down):  4.410E-02 0.000E+00

     Forces acting on atoms (cartesian axes, Ry/au):

     atom    1 type  1   force =     1.40509397    0.51340421    0.06971685
     atom    2 type  1   force =    -6.45396338   -3.01309646   -0.73758827
     atom    3 type  1   force =    -4.43954105   -2.47948370   -0.42277646
     atom    4 type  1   force =     0.09779822    0.12021136    0.02212452
     atom    5 type  1   force =    -1.34770895    0.54928584    1.01797373
     atom    6 type  1   force =     1.33919128    2.15266972    0.79699860
     atom    7 type  1   force =     0.23815758    0.83817687    0.88494756
     atom    8 type  1   force =     0.03049984    0.03835143    0.06663149
     atom    9 type  2   force =     0.15626684   -0.06180767   -0.04887742
     atom   10 type  2   force =    -0.38691799   -0.38607083   -0.38640778
     atom   11 type  2   force =     4.99445694   -0.38972654   -0.24934677
     atom   12 type  2   force =     0.04977272   -0.16305531    0.04107019
     atom   13 type  2   force =     0.19295542   -0.94822890   -0.09663274
     atom   14 type  2   force =     0.18094463   -0.62814754   -0.22216883
     atom   15 type  2   force =     0.07028121    0.05915627   -0.50605050
     atom   16 type  2   force =     2.21225504   -0.46632398   -1.14052268
     atom   17 type  3   force =    -0.12469725   -0.00836339    0.02947689
     atom   18 type  3   force =     3.76458168    3.12005136    0.30310120
     atom   19 type  3   force =    -0.00432085    0.00168581    0.02251839
     atom   20 type  3   force =    -0.02414756   -0.04060039   -0.03455228
     atom   21 type  3   force =    -0.03461697   -0.01339803   -0.13268101
     atom   22 type  3   force =    -1.71550407   -0.42827067    1.75714224
     atom   23 type  3   force =    -0.07724868   -0.09747041    0.34391410
     atom   24 type  3   force =    -0.14492344    0.48835063   -0.45149413
     atom   25 type  3   force =     0.01475977    0.04194801   -0.19390131
     atom   26 type  3   force =    -0.00882721   -0.08036509    0.09922483
     atom   27 type  3   force =     0.32531008    0.39357353   -0.27420937
     atom   28 type  3   force =     0.00819456    0.13270593   -0.01331683
     atom   29 type  3   force =     0.22663734   -0.12444524   -0.02016267
     atom   30 type  3   force =    -0.15445359    0.47367266   -0.22316823
     atom   31 type  3   force =     1.99080960    1.03142130   -4.18182176
     atom   32 type  3   force =    -0.48659033   -0.18802624   -0.20257714
     atom   33 type  3   force =     0.05383244    0.03928369   -0.00453150
     atom   34 type  3   force =    -2.06219771   -1.04773981    4.38870375
     atom   35 type  3   force =    -0.25030276   -0.58743287   -0.05618664
     atom   36 type  3   force =    -0.01201243   -0.00519361    0.01739956
     atom   37 type  3   force =    -0.02086091    0.06278561    0.03949677
     atom   38 type  3   force =     0.20468034   -0.02579435   -0.05531046
     atom   39 type  3   force =     0.19235564    1.12630681   -0.24615588

     Total force =    14.353048     Total SCF correction =     0.000966


     Computing stress (Cartesian axis) and pressure


     negative rho (up, down):  4.410E-02 0.000E+00
          total   stress  (Ry/bohr**3)                   (kbar)     P=     1051.96
   0.01111025   0.00239207  -0.00102969         1634.37      351.89     -151.47
   0.00239207   0.00589460   0.00079154          351.89      867.13      116.44
  -0.00102969   0.00079154   0.00444839         -151.47      116.44      654.38


     Writing output data file ./tmp/BaTiO3_defect.save/

     init_run     :    129.94s CPU    130.52s WALL (       1 calls)
     electrons    :  35476.47s CPU  78585.72s WALL (       1 calls)
     forces       :    140.00s CPU    619.31s WALL (       1 calls)
     stress       :     97.76s CPU     98.26s WALL (       1 calls)

     Called by init_run:
     wfcinit      :    120.85s CPU    120.91s WALL (       1 calls)
     potinit      :      2.64s CPU      2.69s WALL (       1 calls)
     hinit0       :      1.03s CPU      1.05s WALL (       1 calls)

     Called by electrons:
     c_bands      :  31231.18s CPU  71934.58s WALL (      97 calls)
     sum_band     :   3463.45s CPU   5864.84s WALL (      97 calls)
     v_of_rho     :     36.37s CPU     36.41s WALL (      98 calls)
     newd         :    525.13s CPU    529.80s WALL (      98 calls)
     PAW_pot      :    218.83s CPU    218.84s WALL (      98 calls)
     mix_rho      :      8.45s CPU      8.47s WALL (      97 calls)

     Called by c_bands:
     init_us_2    :     35.67s CPU     35.69s WALL (     788 calls)
     cegterg      :  31069.73s CPU  71772.73s WALL (     394 calls)

     Called by *egterg:
     cdiaghg      :    118.09s CPU    118.10s WALL (    1392 calls)
     h_psi        :  12437.87s CPU  33498.04s WALL (    1402 calls)
     s_psi        :   4075.39s CPU   7828.78s WALL (    1402 calls)
     g_psi        :      6.10s CPU      6.10s WALL (    1004 calls)

     Called by h_psi:
     h_psi:calbec :   6666.54s CPU  18063.27s WALL (    1402 calls)
     vloc_psi     :   1691.85s CPU   1692.13s WALL (    1402 calls)
     add_vuspsi   :   4074.44s CPU  13734.63s WALL (    1402 calls)

     General routines
     calbec       :   9679.55s CPU  23895.84s WALL (    1810 calls)
     fft          :      8.48s CPU      8.48s WALL (    1103 calls)
     ffts         :      0.72s CPU      0.72s WALL (      97 calls)
     fftw         :   1887.19s CPU   1887.52s WALL (  413586 calls)


     PWSCF        :      9h57m CPU     22h 3m WALL


   This run was terminated on:  14:17:56   9Jan2025            

=------------------------------------------------------------------------------=
   JOB DONE.
=------------------------------------------------------------------------------=
