
     Program PWSCF v.7.4 starts on  6Feb2025 at 19:53:28 

     This program is part of the open-source Quantum ESPRESSO suite
     for quantum simulation of materials; please cite
         "P. Giannozzi et al., J. Phys.:Condens. Matter 21 395502 (2009);
         "P. Giannozzi et al., J. Phys.:Condens. Matter 29 465901 (2017);
         "P. Giannozzi et al., J. Chem. Phys. 152 154105 (2020);
          URL http://www.quantum-espresso.org", 
     in publications or presentations arising from this work. More details at
     http://www.quantum-espresso.org/quote

     Serial multi-threaded version, running on    1 processor cores
     39835 MiB available memory on the printing compute node when the environment starts
 
     Reading input from scf.in

     Current dimensions of program PWSCF are:
     Max number of different atomic species (ntypx) = 10
     Max number of k-points (npk) =  40000
     Max angular momentum in pseudopotentials (lmaxx) =  4

     Program PWSCF v.7.4 starts on  6Feb2025 at 19:53:28 

     This program is part of the open-source Quantum ESPRESSO suite
     for quantum simulation of materials; please cite
         "P. Giannozzi et al., J. Phys.:Condens. Matter 21 395502 (2009);
         "P. Giannozzi et al., J. Phys.:Condens. Matter 29 465901 (2017);
         "P. Giannozzi et al., J. Chem. Phys. 152 154105 (2020);
          URL http://www.quantum-espresso.org", 
     in publications or presentations arising from this work. More details at
     http://www.quantum-espresso.org/quote

     Serial multi-threaded version, running on    1 processor cores
     39830 MiB available memory on the printing compute node when the environment starts
 
     Reading input from scf.in

     Current dimensions of program PWSCF are:
     Max number of different atomic species (ntypx) = 10
     Max number of k-points (npk) =  40000
     Max angular momentum in pseudopotentials (lmaxx) =  4

     Program PWSCF v.7.4 starts on  6Feb2025 at 19:53:28 

     This program is part of the open-source Quantum ESPRESSO suite
     for quantum simulation of materials; please cite
         "P. Giannozzi et al., J. Phys.:Condens. Matter 21 395502 (2009);
         "P. Giannozzi et al., J. Phys.:Condens. Matter 29 465901 (2017);
         "P. Giannozzi et al., J. Chem. Phys. 152 154105 (2020);
          URL http://www.quantum-espresso.org", 
     in publications or presentations arising from this work. More details at
     http://www.quantum-espresso.org/quote

     Serial multi-threaded version, running on    1 processor cores
     39822 MiB available memory on the printing compute node when the environment starts
 
     Reading input from scf.in

     Program PWSCF v.7.4 starts on  6Feb2025 at 19:53:28 

     This program is part of the open-source Quantum ESPRESSO suite
     for quantum simulation of materials; please cite
         "P. Giannozzi et al., J. Phys.:Condens. Matter 21 395502 (2009);
         "P. Giannozzi et al., J. Phys.:Condens. Matter 29 465901 (2017);
         "P. Giannozzi et al., J. Chem. Phys. 152 154105 (2020);
          URL http://www.quantum-espresso.org", 
     in publications or presentations arising from this work. More details at
     http://www.quantum-espresso.org/quote

     Serial multi-threaded version, running on    1 processor cores
     39822 MiB available memory on the printing compute node when the environment starts
 
     Reading input from scf.in

     Current dimensions of program PWSCF are:
     Max number of different atomic species (ntypx) = 10
     Max number of k-points (npk) =  40000
     Max angular momentum in pseudopotentials (lmaxx) =  4

     Current dimensions of program PWSCF are:
     Max number of different atomic species (ntypx) = 10
     Max number of k-points (npk) =  40000
     Max angular momentum in pseudopotentials (lmaxx) =  4
     file Sr.pbe-spn-kjpaw_psl.1.0.0.UPF: wavefunction(s)  4P renormalized
     file Ti.pbe-spn-kjpaw_psl.1.0.0.UPF: wavefunction(s)  3S 3P 3D renormalized
     file O.pbe-n-kjpaw_psl.1.0.0.UPF: wavefunction(s)  2S 2P renormalized
     Message from routine setup:
     using ibrav=0 with symmetry is DISCOURAGED, use correct ibrav instead
     file Sr.pbe-spn-kjpaw_psl.1.0.0.UPF: wavefunction(s)  4P renormalized
     file Ti.pbe-spn-kjpaw_psl.1.0.0.UPF: wavefunction(s)  3S 3P 3D renormalized
     file O.pbe-n-kjpaw_psl.1.0.0.UPF: wavefunction(s)  2S 2P renormalized
     file Sr.pbe-spn-kjpaw_psl.1.0.0.UPF: wavefunction(s)  4P renormalized
     file Ti.pbe-spn-kjpaw_psl.1.0.0.UPF: wavefunction(s)  3S 3P 3D renormalized
     file O.pbe-n-kjpaw_psl.1.0.0.UPF: wavefunction(s)  2S 2P renormalized
     Message from routine setup:
     using ibrav=0 with symmetry is DISCOURAGED, use correct ibrav instead
     file Sr.pbe-spn-kjpaw_psl.1.0.0.UPF: wavefunction(s)  4P renormalized
     file Ti.pbe-spn-kjpaw_psl.1.0.0.UPF: wavefunction(s)  3S 3P 3D renormalized
     file O.pbe-n-kjpaw_psl.1.0.0.UPF: wavefunction(s)  2S 2P renormalized
     Message from routine setup:
     using ibrav=0 with symmetry is DISCOURAGED, use correct ibrav instead
     Message from routine setup:
     using ibrav=0 with symmetry is DISCOURAGED, use correct ibrav instead
 
 
     G-vector sticks info
     --------------------
     sticks:   dense  smooth     PW     G-vecs:    dense   smooth      PW
     Sum        5541    5541   1449               310417   310417   41347
 
     Using Slab Decomposition
 
 


     bravais-lattice index     =            0
     lattice parameter (alat)  =      14.7588  a.u.
     unit-cell volume          =    3214.7685 (a.u.)^3
     number of atoms/cell      =           39
     number of atomic types    =            3
     number of electrons       =       314.00
     number of Kohn-Sham states=          188
     kinetic-energy cutoff     =      80.0000  Ry
     charge density cutoff     =     320.0000  Ry
     scf convergence threshold =      1.0E-10
     mixing beta               =       0.0300
     number of iterations used =            8  plain     mixing
     Exchange-correlation= SLA  PW   PBX  PBC
                           (   1   4   3   4   0   0   0)

     GPU acceleration is ACTIVE.  1 visible GPUs per MPI rank
     GPU-aware MPI enabled


     celldm(1)=  14.758761  celldm(2)=   0.000000  celldm(3)=   0.000000
     celldm(4)=   0.000000  celldm(5)=   0.000000  celldm(6)=   0.000000

     crystal axes: (cart. coord. in units of alat)
               a(1) = (   1.000000   0.000000   0.000000 )  
               a(2) = (   0.000000   1.000000   0.000000 )  
               a(3) = (   0.000000   0.000000   1.000000 )  

     reciprocal axes: (cart. coord. in units 2 pi/alat)
               b(1) = (  1.000000  0.000000  0.000000 )  
               b(2) = (  0.000000  1.000000  0.000000 )  
               b(3) = (  0.000000  0.000000  1.000000 )  


     PseudoPot. # 1 for Sr read from file:
     ./pseudo/Sr.pbe-spn-kjpaw_psl.1.0.0.UPF
     MD5 check sum: 304ac60131d69ebf2380f6d2a1d0bd9f
     Pseudo is Projector augmented-wave + core cor, Zval = 10.0
     Generated using &quot;atomic&quot; code by A. Dal Corso  v.6.2.2
     Shape of augmentation charge: PSQ
     Using radial grid of 1221 points,  6 beta functions with: 
                l(1) =   0
                l(2) =   0
                l(3) =   1
                l(4) =   1
                l(5) =   2
                l(6) =   2
     Q(r) pseudized with 0 coefficients 


     PseudoPot. # 2 for Ti read from file:
     ./pseudo/Ti.pbe-spn-kjpaw_psl.1.0.0.UPF
     MD5 check sum: 7ea84e4330344cbc938d542ff58a5c10
     Pseudo is Projector augmented-wave + core cor, Zval = 12.0
     Generated using &quot;atomic&quot; code by A. Dal Corso  v.6.2.2
     Shape of augmentation charge: PSQ
     Using radial grid of 1177 points,  6 beta functions with: 
                l(1) =   0
                l(2) =   0
                l(3) =   1
                l(4) =   1
                l(5) =   2
                l(6) =   2
     Q(r) pseudized with 0 coefficients 


     PseudoPot. # 3 for O  read from file:
     ./pseudo/O.pbe-n-kjpaw_psl.1.0.0.UPF
     MD5 check sum: 62c11a45e085f03adfe5482d7843b034
     Pseudo is Projector augmented-wave + core cor, Zval =  6.0
     Generated using &quot;atomic&quot; code by A. Dal Corso  v.6.3
     Shape of augmentation charge: PSQ
     Using radial grid of 1095 points,  4 beta functions with: 
                l(1) =   0
                l(2) =   0
                l(3) =   1
                l(4) =   1
     Q(r) pseudized with 0 coefficients 


     atomic species   valence    mass     pseudopotential
     Sr               10.00    87.62000     Sr( 1.00)
     Ti               12.00    47.86700     Ti( 1.00)
     O                 6.00    15.99900     O ( 1.00)

      2 Sym. Ops. (no inversion) found ( 1 have fractional translation)



   Cartesian axes

     site n.     atom                  positions (alat units)
         1        Sr     tau(   1) = (   0.0000000   0.0000000   0.0000000  )
         2        Sr     tau(   2) = (   0.0000000   0.5000000   0.5000000  )
         3        Sr     tau(   3) = (   0.5000000   0.0000000   0.5000000  )
         4        Sr     tau(   4) = (   0.5000000   0.5000000   0.0000000  )
         5        Sr     tau(   5) = (   0.5000000   0.5000000   0.5000000  )
         6        Sr     tau(   6) = (   0.0000000   0.5000000   0.0000000  )
         7        Sr     tau(   7) = (   0.0000000   0.0000000   0.5000000  )
         8        Sr     tau(   8) = (   0.5000000   0.0000000   0.0000000  )
         9        Ti     tau(   9) = (   0.2500000   0.2500000   0.2500000  )
        10        Ti     tau(  10) = (   0.7500000   0.2500000   0.2500000  )
        11        Ti     tau(  11) = (   0.2500000   0.7500000   0.2500000  )
        12        Ti     tau(  12) = (   0.2500000   0.2500000   0.7500000  )
        13        Ti     tau(  13) = (   0.7500000   0.7500000   0.2500000  )
        14        Ti     tau(  14) = (   0.7500000   0.2500000   0.7500000  )
        15        Ti     tau(  15) = (   0.2500000   0.7500000   0.7500000  )
        16        Ti     tau(  16) = (   0.7500000   0.7500000   0.7500000  )
        17        O      tau(  17) = (   0.0000000   0.0000000   0.2500000  )
        18        O      tau(  18) = (   0.0000000   0.2500000   0.0000000  )
        19        O      tau(  19) = (   0.2500000   0.0000000   0.0000000  )
        20        O      tau(  20) = (   0.0000000   0.5000000   0.2500000  )
        21        O      tau(  21) = (   0.0000000   0.7500000   0.0000000  )
        22        O      tau(  22) = (   0.2500000   0.5000000   0.0000000  )
        23        O      tau(  23) = (   0.5000000   0.0000000   0.2500000  )
        24        O      tau(  24) = (   0.5000000   0.2500000   0.0000000  )
        25        O      tau(  25) = (   0.7500000   0.0000000   0.0000000  )
        26        O      tau(  26) = (   0.5000000   0.5000000   0.2500000  )
        27        O      tau(  27) = (   0.5000000   0.7500000   0.0000000  )
        28        O      tau(  28) = (   0.7500000   0.5000000   0.0000000  )
        29        O      tau(  29) = (   0.0000000   0.2500000   0.5000000  )
        30        O      tau(  30) = (   0.0000000   0.5000000   0.7500000  )
        31        O      tau(  31) = (   0.2500000   0.0000000   0.5000000  )
        32        O      tau(  32) = (   0.0000000   0.7500000   0.5000000  )
        33        O      tau(  33) = (   0.2500000   0.5000000   0.5000000  )
        34        O      tau(  34) = (   0.5000000   0.2500000   0.5000000  )
        35        O      tau(  35) = (   0.5000000   0.5000000   0.7500000  )
        36        O      tau(  36) = (   0.7500000   0.0000000   0.5000000  )
        37        O      tau(  37) = (   0.5000000   0.7500000   0.5000000  )
        38        O      tau(  38) = (   0.7500000   0.5000000   0.5000000  )
        39        O      tau(  39) = (   0.2500000   0.2500000   0.0000000  )

     number of k points=     2  Gaussian smearing, width (Ry)=  0.0050
                       cart. coord. in units 2pi/alat
        k(    1) = (   0.2500000   0.2500000   0.2500000), wk =   1.0000000
        k(    2) = (  -0.2500000   0.2500000  -0.2500000), wk =   1.0000000

     Dense  grid:   310417 G-vectors     FFT dimensions: (  90,  90,  90)

     Estimated max dynamical RAM per process >       1.97 GB
 
     G-vector sticks info
     --------------------
     sticks:   dense  smooth     PW     G-vecs:    dense   smooth      PW
     Sum        5541    5541   1449               310417   310417   41347
 
     Using Slab Decomposition
 


     bravais-lattice index     =            0
     lattice parameter (alat)  =      14.7588  a.u.
     unit-cell volume          =    3214.7685 (a.u.)^3
     number of atoms/cell      =           39
     number of atomic types    =            3
     number of electrons       =       314.00
     number of Kohn-Sham states=          188
     kinetic-energy cutoff     =      80.0000  Ry
     charge density cutoff     =     320.0000  Ry
     scf convergence threshold =      1.0E-10
     mixing beta               =       0.0300
     number of iterations used =            8  plain     mixing
     Exchange-correlation= SLA  PW   PBX  PBC
                           (   1   4   3   4   0   0   0)

     GPU acceleration is ACTIVE.  1 visible GPUs per MPI rank
     GPU-aware MPI enabled


     celldm(1)=  14.758761  celldm(2)=   0.000000  celldm(3)=   0.000000
     celldm(4)=   0.000000  celldm(5)=   0.000000  celldm(6)=   0.000000

     crystal axes: (cart. coord. in units of alat)
               a(1) = (   1.000000   0.000000   0.000000 )  
               a(2) = (   0.000000   1.000000   0.000000 )  
               a(3) = (   0.000000   0.000000   1.000000 )  

     reciprocal axes: (cart. coord. in units 2 pi/alat)
               b(1) = (  1.000000  0.000000  0.000000 )  
               b(2) = (  0.000000  1.000000  0.000000 )  
               b(3) = (  0.000000  0.000000  1.000000 )  


     PseudoPot. # 1 for Sr read from file:
     ./pseudo/Sr.pbe-spn-kjpaw_psl.1.0.0.UPF
     MD5 check sum: 304ac60131d69ebf2380f6d2a1d0bd9f
     Pseudo is Projector augmented-wave + core cor, Zval = 10.0
     Generated using &quot;atomic&quot; code by A. Dal Corso  v.6.2.2
     Shape of augmentation charge: PSQ
     Using radial grid of 1221 points,  6 beta functions with: 
                l(1) =   0
                l(2) =   0
                l(3) =   1
                l(4) =   1
                l(5) =   2
                l(6) =   2
     Q(r) pseudized with 0 coefficients 


     PseudoPot. # 2 for Ti read from file:
     ./pseudo/Ti.pbe-spn-kjpaw_psl.1.0.0.UPF
     MD5 check sum: 7ea84e4330344cbc938d542ff58a5c10
     Pseudo is Projector augmented-wave + core cor, Zval = 12.0
     Generated using &quot;atomic&quot; code by A. Dal Corso  v.6.2.2
     Shape of augmentation charge: PSQ
     Using radial grid of 1177 points,  6 beta functions with: 
                l(1) =   0
                l(2) =   0
                l(3) =   1
                l(4) =   1
                l(5) =   2
                l(6) =   2
     Q(r) pseudized with 0 coefficients 


     PseudoPot. # 3 for O  read from file:
     ./pseudo/O.pbe-n-kjpaw_psl.1.0.0.UPF
     MD5 check sum: 62c11a45e085f03adfe5482d7843b034
     Pseudo is Projector augmented-wave + core cor, Zval =  6.0
     Generated using &quot;atomic&quot; code by A. Dal Corso  v.6.3
     Shape of augmentation charge: PSQ
     Using radial grid of 1095 points,  4 beta functions with: 
                l(1) =   0
                l(2) =   0
                l(3) =   1
                l(4) =   1
     Q(r) pseudized with 0 coefficients 


     atomic species   valence    mass     pseudopotential
     Sr               10.00    87.62000     Sr( 1.00)
     Ti               12.00    47.86700     Ti( 1.00)
     O                 6.00    15.99900     O ( 1.00)

      2 Sym. Ops. (no inversion) found ( 1 have fractional translation)



   Cartesian axes

     site n.     atom                  positions (alat units)
         1        Sr     tau(   1) = (   0.0000000   0.0000000   0.0000000  )
         2        Sr     tau(   2) = (   0.0000000   0.5000000   0.5000000  )
         3        Sr     tau(   3) = (   0.5000000   0.0000000   0.5000000  )
         4        Sr     tau(   4) = (   0.5000000   0.5000000   0.0000000  )
         5        Sr     tau(   5) = (   0.5000000   0.5000000   0.5000000  )
         6        Sr     tau(   6) = (   0.0000000   0.5000000   0.0000000  )
         7        Sr     tau(   7) = (   0.0000000   0.0000000   0.5000000  )
         8        Sr     tau(   8) = (   0.5000000   0.0000000   0.0000000  )
         9        Ti     tau(   9) = (   0.2500000   0.2500000   0.2500000  )
        10        Ti     tau(  10) = (   0.7500000   0.2500000   0.2500000  )
        11        Ti     tau(  11) = (   0.2500000   0.7500000   0.2500000  )
        12        Ti     tau(  12) = (   0.2500000   0.2500000   0.7500000  )
        13        Ti     tau(  13) = (   0.7500000   0.7500000   0.2500000  )
        14        Ti     tau(  14) = (   0.7500000   0.2500000   0.7500000  )
        15        Ti     tau(  15) = (   0.2500000   0.7500000   0.7500000  )
        16        Ti     tau(  16) = (   0.7500000   0.7500000   0.7500000  )
        17        O      tau(  17) = (   0.0000000   0.0000000   0.2500000  )
        18        O      tau(  18) = (   0.0000000   0.2500000   0.0000000  )
        19        O      tau(  19) = (   0.2500000   0.0000000   0.0000000  )
        20        O      tau(  20) = (   0.0000000   0.5000000   0.2500000  )
        21        O      tau(  21) = (   0.0000000   0.7500000   0.0000000  )
        22        O      tau(  22) = (   0.2500000   0.5000000   0.0000000  )
        23        O      tau(  23) = (   0.5000000   0.0000000   0.2500000  )
        24        O      tau(  24) = (   0.5000000   0.2500000   0.0000000  )
        25        O      tau(  25) = (   0.7500000   0.0000000   0.0000000  )
        26        O      tau(  26) = (   0.5000000   0.5000000   0.2500000  )
        27        O      tau(  27) = (   0.5000000   0.7500000   0.0000000  )
        28        O      tau(  28) = (   0.7500000   0.5000000   0.0000000  )
        29        O      tau(  29) = (   0.0000000   0.2500000   0.5000000  )
        30        O      tau(  30) = (   0.0000000   0.5000000   0.7500000  )
        31        O      tau(  31) = (   0.2500000   0.0000000   0.5000000  )
        32        O      tau(  32) = (   0.0000000   0.7500000   0.5000000  )
        33        O      tau(  33) = (   0.2500000   0.5000000   0.5000000  )
        34        O      tau(  34) = (   0.5000000   0.2500000   0.5000000  )
        35        O      tau(  35) = (   0.5000000   0.5000000   0.7500000  )
        36        O      tau(  36) = (   0.7500000   0.0000000   0.5000000  )
        37        O      tau(  37) = (   0.5000000   0.7500000   0.5000000  )
        38        O      tau(  38) = (   0.7500000   0.5000000   0.5000000  )
        39        O      tau(  39) = (   0.2500000   0.2500000   0.0000000  )

     number of k points=     2  Gaussian smearing, width (Ry)=  0.0050
                       cart. coord. in units 2pi/alat
        k(    1) = (   0.2500000   0.2500000   0.2500000), wk =   1.0000000
        k(    2) = (  -0.2500000   0.2500000  -0.2500000), wk =   1.0000000

     Dense  grid:   310417 G-vectors     FFT dimensions: (  90,  90,  90)

     Estimated max dynamical RAM per process >       1.97 GB
 
 
     G-vector sticks info
     --------------------
     sticks:   dense  smooth     PW     G-vecs:    dense   smooth      PW
     Sum        5541    5541   1449               310417   310417   41347
 
     Using Slab Decomposition
 
 


     bravais-lattice index     =            0
     lattice parameter (alat)  =      14.7588  a.u.
     unit-cell volume          =    3214.7685 (a.u.)^3
     number of atoms/cell      =           39
     number of atomic types    =            3
     number of electrons       =       314.00
     number of Kohn-Sham states=          188
     kinetic-energy cutoff     =      80.0000  Ry
     charge density cutoff     =     320.0000  Ry
     scf convergence threshold =      1.0E-10
     mixing beta               =       0.0300
     number of iterations used =            8  plain     mixing
     Exchange-correlation= SLA  PW   PBX  PBC
                           (   1   4   3   4   0   0   0)

     GPU acceleration is ACTIVE.  1 visible GPUs per MPI rank
     GPU-aware MPI enabled


     celldm(1)=  14.758761  celldm(2)=   0.000000  celldm(3)=   0.000000
     celldm(4)=   0.000000  celldm(5)=   0.000000  celldm(6)=   0.000000

     crystal axes: (cart. coord. in units of alat)
               a(1) = (   1.000000   0.000000   0.000000 )  
               a(2) = (   0.000000   1.000000   0.000000 )  
               a(3) = (   0.000000   0.000000   1.000000 )  

     reciprocal axes: (cart. coord. in units 2 pi/alat)
               b(1) = (  1.000000  0.000000  0.000000 )  
               b(2) = (  0.000000  1.000000  0.000000 )  
               b(3) = (  0.000000  0.000000  1.000000 )  


     PseudoPot. # 1 for Sr read from file:
     ./pseudo/Sr.pbe-spn-kjpaw_psl.1.0.0.UPF
     MD5 check sum: 304ac60131d69ebf2380f6d2a1d0bd9f
     Pseudo is Projector augmented-wave + core cor, Zval = 10.0
     Generated using &quot;atomic&quot; code by A. Dal Corso  v.6.2.2
     Shape of augmentation charge: PSQ
     Using radial grid of 1221 points,  6 beta functions with: 
                l(1) =   0
                l(2) =   0
                l(3) =   1
                l(4) =   1
                l(5) =   2
                l(6) =   2
     Q(r) pseudized with 0 coefficients 


     PseudoPot. # 2 for Ti read from file:
     ./pseudo/Ti.pbe-spn-kjpaw_psl.1.0.0.UPF
     MD5 check sum: 7ea84e4330344cbc938d542ff58a5c10
     Pseudo is Projector augmented-wave + core cor, Zval = 12.0
     Generated using &quot;atomic&quot; code by A. Dal Corso  v.6.2.2
     Shape of augmentation charge: PSQ
     Using radial grid of 1177 points,  6 beta functions with: 
                l(1) =   0
                l(2) =   0
                l(3) =   1
                l(4) =   1
                l(5) =   2
                l(6) =   2
     Q(r) pseudized with 0 coefficients 


     PseudoPot. # 3 for O  read from file:
     ./pseudo/O.pbe-n-kjpaw_psl.1.0.0.UPF
     MD5 check sum: 62c11a45e085f03adfe5482d7843b034
     Pseudo is Projector augmented-wave + core cor, Zval =  6.0
     Generated using &quot;atomic&quot; code by A. Dal Corso  v.6.3
     Shape of augmentation charge: PSQ
     Using radial grid of 1095 points,  4 beta functions with: 
                l(1) =   0
                l(2) =   0
                l(3) =   1
                l(4) =   1
     Q(r) pseudized with 0 coefficients 


     atomic species   valence    mass     pseudopotential
     Sr               10.00    87.62000     Sr( 1.00)
     Ti               12.00    47.86700     Ti( 1.00)
     O                 6.00    15.99900     O ( 1.00)

      2 Sym. Ops. (no inversion) found ( 1 have fractional translation)



   Cartesian axes

     site n.     atom                  positions (alat units)
         1        Sr     tau(   1) = (   0.0000000   0.0000000   0.0000000  )
         2        Sr     tau(   2) = (   0.0000000   0.5000000   0.5000000  )
         3        Sr     tau(   3) = (   0.5000000   0.0000000   0.5000000  )
         4        Sr     tau(   4) = (   0.5000000   0.5000000   0.0000000  )
         5        Sr     tau(   5) = (   0.5000000   0.5000000   0.5000000  )
         6        Sr     tau(   6) = (   0.0000000   0.5000000   0.0000000  )
         7        Sr     tau(   7) = (   0.0000000   0.0000000   0.5000000  )
         8        Sr     tau(   8) = (   0.5000000   0.0000000   0.0000000  )
         9        Ti     tau(   9) = (   0.2500000   0.2500000   0.2500000  )
        10        Ti     tau(  10) = (   0.7500000   0.2500000   0.2500000  )
        11        Ti     tau(  11) = (   0.2500000   0.7500000   0.2500000  )
        12        Ti     tau(  12) = (   0.2500000   0.2500000   0.7500000  )
        13        Ti     tau(  13) = (   0.7500000   0.7500000   0.2500000  )
        14        Ti     tau(  14) = (   0.7500000   0.2500000   0.7500000  )
        15        Ti     tau(  15) = (   0.2500000   0.7500000   0.7500000  )
        16        Ti     tau(  16) = (   0.7500000   0.7500000   0.7500000  )
        17        O      tau(  17) = (   0.0000000   0.0000000   0.2500000  )
        18        O      tau(  18) = (   0.0000000   0.2500000   0.0000000  )
        19        O      tau(  19) = (   0.2500000   0.0000000   0.0000000  )
        20        O      tau(  20) = (   0.0000000   0.5000000   0.2500000  )
        21        O      tau(  21) = (   0.0000000   0.7500000   0.0000000  )
        22        O      tau(  22) = (   0.2500000   0.5000000   0.0000000  )
        23        O      tau(  23) = (   0.5000000   0.0000000   0.2500000  )
        24        O      tau(  24) = (   0.5000000   0.2500000   0.0000000  )
        25        O      tau(  25) = (   0.7500000   0.0000000   0.0000000  )
        26        O      tau(  26) = (   0.5000000   0.5000000   0.2500000  )
        27        O      tau(  27) = (   0.5000000   0.7500000   0.0000000  )
        28        O      tau(  28) = (   0.7500000   0.5000000   0.0000000  )
        29        O      tau(  29) = (   0.0000000   0.2500000   0.5000000  )
        30        O      tau(  30) = (   0.0000000   0.5000000   0.7500000  )
        31        O      tau(  31) = (   0.2500000   0.0000000   0.5000000  )
        32        O      tau(  32) = (   0.0000000   0.7500000   0.5000000  )
        33        O      tau(  33) = (   0.2500000   0.5000000   0.5000000  )
        34        O      tau(  34) = (   0.5000000   0.2500000   0.5000000  )
        35        O      tau(  35) = (   0.5000000   0.5000000   0.7500000  )
        36        O      tau(  36) = (   0.7500000   0.0000000   0.5000000  )
        37        O      tau(  37) = (   0.5000000   0.7500000   0.5000000  )
        38        O      tau(  38) = (   0.7500000   0.5000000   0.5000000  )
        39        O      tau(  39) = (   0.2500000   0.2500000   0.0000000  )

     number of k points=     2  Gaussian smearing, width (Ry)=  0.0050
                       cart. coord. in units 2pi/alat
        k(    1) = (   0.2500000   0.2500000   0.2500000), wk =   1.0000000
        k(    2) = (  -0.2500000   0.2500000  -0.2500000), wk =   1.0000000

     Dense  grid:   310417 G-vectors     FFT dimensions: (  90,  90,  90)

     Estimated max dynamical RAM per process >       1.97 GB
 
     G-vector sticks info
     --------------------
     sticks:   dense  smooth     PW     G-vecs:    dense   smooth      PW
     Sum        5541    5541   1449               310417   310417   41347
 
     Using Slab Decomposition
 


     bravais-lattice index     =            0
     lattice parameter (alat)  =      14.7588  a.u.
     unit-cell volume          =    3214.7685 (a.u.)^3
     number of atoms/cell      =           39
     number of atomic types    =            3
     number of electrons       =       314.00
     number of Kohn-Sham states=          188
     kinetic-energy cutoff     =      80.0000  Ry
     charge density cutoff     =     320.0000  Ry
     scf convergence threshold =      1.0E-10
     mixing beta               =       0.0300
     number of iterations used =            8  plain     mixing
     Exchange-correlation= SLA  PW   PBX  PBC
                           (   1   4   3   4   0   0   0)

     GPU acceleration is ACTIVE.  1 visible GPUs per MPI rank
     GPU-aware MPI enabled


     celldm(1)=  14.758761  celldm(2)=   0.000000  celldm(3)=   0.000000
     celldm(4)=   0.000000  celldm(5)=   0.000000  celldm(6)=   0.000000

     crystal axes: (cart. coord. in units of alat)
               a(1) = (   1.000000   0.000000   0.000000 )  
               a(2) = (   0.000000   1.000000   0.000000 )  
               a(3) = (   0.000000   0.000000   1.000000 )  

     reciprocal axes: (cart. coord. in units 2 pi/alat)
               b(1) = (  1.000000  0.000000  0.000000 )  
               b(2) = (  0.000000  1.000000  0.000000 )  
               b(3) = (  0.000000  0.000000  1.000000 )  


     PseudoPot. # 1 for Sr read from file:
     ./pseudo/Sr.pbe-spn-kjpaw_psl.1.0.0.UPF
     MD5 check sum: 304ac60131d69ebf2380f6d2a1d0bd9f
     Pseudo is Projector augmented-wave + core cor, Zval = 10.0
     Generated using &quot;atomic&quot; code by A. Dal Corso  v.6.2.2
     Shape of augmentation charge: PSQ
     Using radial grid of 1221 points,  6 beta functions with: 
                l(1) =   0
                l(2) =   0
                l(3) =   1
                l(4) =   1
                l(5) =   2
                l(6) =   2
     Q(r) pseudized with 0 coefficients 


     PseudoPot. # 2 for Ti read from file:
     ./pseudo/Ti.pbe-spn-kjpaw_psl.1.0.0.UPF
     MD5 check sum: 7ea84e4330344cbc938d542ff58a5c10
     Pseudo is Projector augmented-wave + core cor, Zval = 12.0
     Generated using &quot;atomic&quot; code by A. Dal Corso  v.6.2.2
     Shape of augmentation charge: PSQ
     Using radial grid of 1177 points,  6 beta functions with: 
                l(1) =   0
                l(2) =   0
                l(3) =   1
                l(4) =   1
                l(5) =   2
                l(6) =   2
     Q(r) pseudized with 0 coefficients 


     PseudoPot. # 3 for O  read from file:
     ./pseudo/O.pbe-n-kjpaw_psl.1.0.0.UPF
     MD5 check sum: 62c11a45e085f03adfe5482d7843b034
     Pseudo is Projector augmented-wave + core cor, Zval =  6.0
     Generated using &quot;atomic&quot; code by A. Dal Corso  v.6.3
     Shape of augmentation charge: PSQ
     Using radial grid of 1095 points,  4 beta functions with: 
                l(1) =   0
                l(2) =   0
                l(3) =   1
                l(4) =   1
     Q(r) pseudized with 0 coefficients 


     atomic species   valence    mass     pseudopotential
     Sr               10.00    87.62000     Sr( 1.00)
     Ti               12.00    47.86700     Ti( 1.00)
     O                 6.00    15.99900     O ( 1.00)

      2 Sym. Ops. (no inversion) found ( 1 have fractional translation)



   Cartesian axes

     site n.     atom                  positions (alat units)
         1        Sr     tau(   1) = (   0.0000000   0.0000000   0.0000000  )
         2        Sr     tau(   2) = (   0.0000000   0.5000000   0.5000000  )
         3        Sr     tau(   3) = (   0.5000000   0.0000000   0.5000000  )
         4        Sr     tau(   4) = (   0.5000000   0.5000000   0.0000000  )
         5        Sr     tau(   5) = (   0.5000000   0.5000000   0.5000000  )
         6        Sr     tau(   6) = (   0.0000000   0.5000000   0.0000000  )
         7        Sr     tau(   7) = (   0.0000000   0.0000000   0.5000000  )
         8        Sr     tau(   8) = (   0.5000000   0.0000000   0.0000000  )
         9        Ti     tau(   9) = (   0.2500000   0.2500000   0.2500000  )
        10        Ti     tau(  10) = (   0.7500000   0.2500000   0.2500000  )
        11        Ti     tau(  11) = (   0.2500000   0.7500000   0.2500000  )
        12        Ti     tau(  12) = (   0.2500000   0.2500000   0.7500000  )
        13        Ti     tau(  13) = (   0.7500000   0.7500000   0.2500000  )
        14        Ti     tau(  14) = (   0.7500000   0.2500000   0.7500000  )
        15        Ti     tau(  15) = (   0.2500000   0.7500000   0.7500000  )
        16        Ti     tau(  16) = (   0.7500000   0.7500000   0.7500000  )
        17        O      tau(  17) = (   0.0000000   0.0000000   0.2500000  )
        18        O      tau(  18) = (   0.0000000   0.2500000   0.0000000  )
        19        O      tau(  19) = (   0.2500000   0.0000000   0.0000000  )
        20        O      tau(  20) = (   0.0000000   0.5000000   0.2500000  )
        21        O      tau(  21) = (   0.0000000   0.7500000   0.0000000  )
        22        O      tau(  22) = (   0.2500000   0.5000000   0.0000000  )
        23        O      tau(  23) = (   0.5000000   0.0000000   0.2500000  )
        24        O      tau(  24) = (   0.5000000   0.2500000   0.0000000  )
        25        O      tau(  25) = (   0.7500000   0.0000000   0.0000000  )
        26        O      tau(  26) = (   0.5000000   0.5000000   0.2500000  )
        27        O      tau(  27) = (   0.5000000   0.7500000   0.0000000  )
        28        O      tau(  28) = (   0.7500000   0.5000000   0.0000000  )
        29        O      tau(  29) = (   0.0000000   0.2500000   0.5000000  )
        30        O      tau(  30) = (   0.0000000   0.5000000   0.7500000  )
        31        O      tau(  31) = (   0.2500000   0.0000000   0.5000000  )
        32        O      tau(  32) = (   0.0000000   0.7500000   0.5000000  )
        33        O      tau(  33) = (   0.2500000   0.5000000   0.5000000  )
        34        O      tau(  34) = (   0.5000000   0.2500000   0.5000000  )
        35        O      tau(  35) = (   0.5000000   0.5000000   0.7500000  )
        36        O      tau(  36) = (   0.7500000   0.0000000   0.5000000  )
        37        O      tau(  37) = (   0.5000000   0.7500000   0.5000000  )
        38        O      tau(  38) = (   0.7500000   0.5000000   0.5000000  )
        39        O      tau(  39) = (   0.2500000   0.2500000   0.0000000  )

     number of k points=     2  Gaussian smearing, width (Ry)=  0.0050
                       cart. coord. in units 2pi/alat
        k(    1) = (   0.2500000   0.2500000   0.2500000), wk =   1.0000000
        k(    2) = (  -0.2500000   0.2500000  -0.2500000), wk =   1.0000000

     Dense  grid:   310417 G-vectors     FFT dimensions: (  90,  90,  90)

     Estimated max dynamical RAM per process >       1.97 GB

     Atomic positions and unit cell read from directory:
     ./tmp/SrTiO3_defect.save/
 

     Atomic positions and unit cell read from directory:
     ./tmp/SrTiO3_defect.save/
 

     Atomic positions and unit cell read from directory:
     ./tmp/SrTiO3_defect.save/
 

     Atomic positions and unit cell read from directory:
     ./tmp/SrTiO3_defect.save/
 

     Check: negative core charge=   -0.000008

     The initial density is read from file :
     ./tmp/SrTiO3_defect.save/charge-density


     Check: negative core charge=   -0.000008

     The initial density is read from file :
     ./tmp/SrTiO3_defect.save/charge-density


     Check: negative core charge=   -0.000008

     The initial density is read from file :
     ./tmp/SrTiO3_defect.save/charge-density


     Check: negative core charge=   -0.000008

     The initial density is read from file :
     ./tmp/SrTiO3_defect.save/charge-density

     Starting wfcs from file

     total cpu time spent up to now is        7.8 secs

     Self-consistent Calculation

     iteration #  1     ecut=    80.00 Ry     beta= 0.03
     Davidson diagonalization with overlap
     Starting wfcs from file
     Starting wfcs from file
     Starting wfcs from file

     total cpu time spent up to now is        8.2 secs

     total cpu time spent up to now is        8.2 secs

     total cpu time spent up to now is        8.3 secs

     Self-consistent Calculation

     Self-consistent Calculation

     Self-consistent Calculation

     iteration #  1     ecut=    80.00 Ry     beta= 0.03

     iteration #  1     ecut=    80.00 Ry     beta= 0.03

     iteration #  1     ecut=    80.00 Ry     beta= 0.03
     Davidson diagonalization with overlap
     Davidson diagonalization with overlap
     Davidson diagonalization with overlap
     ethr =  1.00E-05,  avg # of iterations =  1.0
     ethr =  1.00E-05,  avg # of iterations =  1.0
     ethr =  1.00E-05,  avg # of iterations =  1.0
     ethr =  1.00E-05,  avg # of iterations =  1.0

     Threshold (ethr) on eigenvalues was too large:
     Diagonalizing with lowered threshold

     Davidson diagonalization with overlap

     Threshold (ethr) on eigenvalues was too large:
     Diagonalizing with lowered threshold

     Davidson diagonalization with overlap

     Threshold (ethr) on eigenvalues was too large:
     Diagonalizing with lowered threshold

     Davidson diagonalization with overlap

     Threshold (ethr) on eigenvalues was too large:
     Diagonalizing with lowered threshold

     Davidson diagonalization with overlap
     ethr =  3.51E-10,  avg # of iterations =  1.5
     ethr =  3.51E-10,  avg # of iterations =  1.5
     ethr =  3.51E-10,  avg # of iterations =  1.5
     ethr =  3.51E-10,  avg # of iterations =  1.5

     total cpu time spent up to now is       47.5 secs

     total energy              =   -4505.68286105 Ry
     estimated scf accuracy    <       0.00000112 Ry

     iteration #  2     ecut=    80.00 Ry     beta= 0.03
     Davidson diagonalization with overlap

     total cpu time spent up to now is       47.7 secs

     total energy              =   -4505.68286105 Ry
     estimated scf accuracy    <       0.00000112 Ry

     iteration #  2     ecut=    80.00 Ry     beta= 0.03
     Davidson diagonalization with overlap

     total cpu time spent up to now is       49.2 secs

     total energy              =   -4505.68286105 Ry
     estimated scf accuracy    <       0.00000112 Ry

     iteration #  2     ecut=    80.00 Ry     beta= 0.03
     Davidson diagonalization with overlap

     total cpu time spent up to now is       49.3 secs

     total energy              =   -4505.68286105 Ry
     estimated scf accuracy    <       0.00000112 Ry

     iteration #  2     ecut=    80.00 Ry     beta= 0.03
     Davidson diagonalization with overlap
     ethr =  3.56E-10,  avg # of iterations =  1.5
     ethr =  3.56E-10,  avg # of iterations =  1.5
     ethr =  3.56E-10,  avg # of iterations =  1.5
     ethr =  3.56E-10,  avg # of iterations =  1.5

     total cpu time spent up to now is       71.6 secs

     total energy              =   -4505.68286106 Ry
     estimated scf accuracy    <       0.00000107 Ry

     iteration #  3     ecut=    80.00 Ry     beta= 0.03
     Davidson diagonalization with overlap

     total cpu time spent up to now is       71.8 secs

     total energy              =   -4505.68286106 Ry
     estimated scf accuracy    <       0.00000107 Ry

     iteration #  3     ecut=    80.00 Ry     beta= 0.03
     Davidson diagonalization with overlap

     total cpu time spent up to now is       74.1 secs

     total energy              =   -4505.68286106 Ry
     estimated scf accuracy    <       0.00000107 Ry

     iteration #  3     ecut=    80.00 Ry     beta= 0.03
     Davidson diagonalization with overlap

     total cpu time spent up to now is       74.1 secs

     total energy              =   -4505.68286106 Ry
     estimated scf accuracy    <       0.00000107 Ry

     iteration #  3     ecut=    80.00 Ry     beta= 0.03
     Davidson diagonalization with overlap
     ethr =  3.41E-10,  avg # of iterations =  1.5
     ethr =  3.41E-10,  avg # of iterations =  1.5
     ethr =  3.41E-10,  avg # of iterations =  1.5
     ethr =  3.41E-10,  avg # of iterations =  1.5

     total cpu time spent up to now is       97.5 secs

     total energy              =   -4505.68286105 Ry
     estimated scf accuracy    <       0.00000097 Ry

     iteration #  4     ecut=    80.00 Ry     beta= 0.03
     Davidson diagonalization with overlap

     total cpu time spent up to now is       97.7 secs

     total energy              =   -4505.68286105 Ry
     estimated scf accuracy    <       0.00000097 Ry

     iteration #  4     ecut=    80.00 Ry     beta= 0.03
     Davidson diagonalization with overlap

     total cpu time spent up to now is      101.1 secs

     total energy              =   -4505.68286105 Ry
     estimated scf accuracy    <       0.00000097 Ry

     iteration #  4     ecut=    80.00 Ry     beta= 0.03
     Davidson diagonalization with overlap

     total cpu time spent up to now is      101.2 secs

     total energy              =   -4505.68286105 Ry
     estimated scf accuracy    <       0.00000097 Ry

     iteration #  4     ecut=    80.00 Ry     beta= 0.03
     Davidson diagonalization with overlap
     ethr =  3.08E-10,  avg # of iterations =  1.5
     ethr =  3.08E-10,  avg # of iterations =  1.5
     ethr =  3.08E-10,  avg # of iterations =  1.5
     ethr =  3.08E-10,  avg # of iterations =  1.5

     total cpu time spent up to now is      123.4 secs

     total energy              =   -4505.68286109 Ry
     estimated scf accuracy    <       0.00000071 Ry

     iteration #  5     ecut=    80.00 Ry     beta= 0.03
     Davidson diagonalization with overlap

     total cpu time spent up to now is      123.6 secs

     total energy              =   -4505.68286109 Ry
     estimated scf accuracy    <       0.00000071 Ry

     iteration #  5     ecut=    80.00 Ry     beta= 0.03
     Davidson diagonalization with overlap

     total cpu time spent up to now is      128.6 secs

     total energy              =   -4505.68286109 Ry
     estimated scf accuracy    <       0.00000071 Ry

     iteration #  5     ecut=    80.00 Ry     beta= 0.03

     total cpu time spent up to now is      128.6 secs

     total energy              =   -4505.68286109 Ry
     estimated scf accuracy    <       0.00000071 Ry

     iteration #  5     ecut=    80.00 Ry     beta= 0.03
     Davidson diagonalization with overlap
     Davidson diagonalization with overlap
     ethr =  2.26E-10,  avg # of iterations =  3.0
     ethr =  2.26E-10,  avg # of iterations =  3.0
     ethr =  2.26E-10,  avg # of iterations =  3.0
     ethr =  2.26E-10,  avg # of iterations =  3.0

     total cpu time spent up to now is      151.3 secs

     total energy              =   -4505.68286114 Ry
     estimated scf accuracy    <       0.00000045 Ry

     iteration #  6     ecut=    80.00 Ry     beta= 0.03
     Davidson diagonalization with overlap

     total cpu time spent up to now is      152.1 secs

     total energy              =   -4505.68286114 Ry
     estimated scf accuracy    <       0.00000045 Ry

     iteration #  6     ecut=    80.00 Ry     beta= 0.03
     Davidson diagonalization with overlap

     total cpu time spent up to now is      158.5 secs

     total energy              =   -4505.68286114 Ry
     estimated scf accuracy    <       0.00000045 Ry

     iteration #  6     ecut=    80.00 Ry     beta= 0.03
     Davidson diagonalization with overlap

     total cpu time spent up to now is      158.5 secs

     total energy              =   -4505.68286114 Ry
     estimated scf accuracy    <       0.00000045 Ry

     iteration #  6     ecut=    80.00 Ry     beta= 0.03
     Davidson diagonalization with overlap
     ethr =  1.43E-10,  avg # of iterations =  2.0
     ethr =  1.43E-10,  avg # of iterations =  2.0
     ethr =  1.43E-10,  avg # of iterations =  2.0
     ethr =  1.43E-10,  avg # of iterations =  2.0

     total cpu time spent up to now is      178.3 secs

     total energy              =   -4505.68286114 Ry
     estimated scf accuracy    <       0.00000040 Ry

     iteration #  7     ecut=    80.00 Ry     beta= 0.03
     Davidson diagonalization with overlap

     total cpu time spent up to now is      179.4 secs

     total energy              =   -4505.68286114 Ry
     estimated scf accuracy    <       0.00000040 Ry

     iteration #  7     ecut=    80.00 Ry     beta= 0.03
     Davidson diagonalization with overlap

     total cpu time spent up to now is      186.7 secs

     total energy              =   -4505.68286114 Ry
     estimated scf accuracy    <       0.00000040 Ry

     iteration #  7     ecut=    80.00 Ry     beta= 0.03

     total cpu time spent up to now is      186.8 secs

     total energy              =   -4505.68286114 Ry
     estimated scf accuracy    <       0.00000040 Ry

     iteration #  7     ecut=    80.00 Ry     beta= 0.03
     Davidson diagonalization with overlap
     Davidson diagonalization with overlap
     ethr =  1.28E-10,  avg # of iterations =  7.0
     ethr =  1.28E-10,  avg # of iterations =  7.0
     ethr =  1.28E-10,  avg # of iterations =  7.0
     ethr =  1.28E-10,  avg # of iterations =  7.0

     total cpu time spent up to now is      209.6 secs

     total energy              =   -4505.68286119 Ry
     estimated scf accuracy    <       0.00000049 Ry

     iteration #  8     ecut=    80.00 Ry     beta= 0.03
     Davidson diagonalization with overlap

     total cpu time spent up to now is      211.4 secs

     total energy              =   -4505.68286119 Ry
     estimated scf accuracy    <       0.00000049 Ry

     iteration #  8     ecut=    80.00 Ry     beta= 0.03
     Davidson diagonalization with overlap
     ethr =  1.28E-10,  avg # of iterations =  1.5
     ethr =  1.28E-10,  avg # of iterations =  1.5

     total cpu time spent up to now is      219.4 secs

     total energy              =   -4505.68286119 Ry
     estimated scf accuracy    <       0.00000049 Ry

     iteration #  8     ecut=    80.00 Ry     beta= 0.03
     Davidson diagonalization with overlap

     total cpu time spent up to now is      219.4 secs

     total energy              =   -4505.68286119 Ry
     estimated scf accuracy    <       0.00000049 Ry

     iteration #  8     ecut=    80.00 Ry     beta= 0.03
     Davidson diagonalization with overlap
     ethr =  1.28E-10,  avg # of iterations =  1.5
     ethr =  1.28E-10,  avg # of iterations =  1.5

     total cpu time spent up to now is      235.0 secs

     total energy              =   -4505.68286120 Ry
     estimated scf accuracy    <       0.00000069 Ry

     iteration #  9     ecut=    80.00 Ry     beta= 0.03
     Davidson diagonalization with overlap

     total cpu time spent up to now is      236.9 secs

     total energy              =   -4505.68286120 Ry
     estimated scf accuracy    <       0.00000069 Ry

     iteration #  9     ecut=    80.00 Ry     beta= 0.03
     Davidson diagonalization with overlap
     ethr =  1.28E-10,  avg # of iterations =  1.5
     ethr =  1.28E-10,  avg # of iterations =  1.5

     total cpu time spent up to now is      245.4 secs

     total energy              =   -4505.68286120 Ry
     estimated scf accuracy    <       0.00000069 Ry

     iteration #  9     ecut=    80.00 Ry     beta= 0.03
     Davidson diagonalization with overlap

     total cpu time spent up to now is      245.4 secs

     total energy              =   -4505.68286120 Ry
     estimated scf accuracy    <       0.00000069 Ry

     iteration #  9     ecut=    80.00 Ry     beta= 0.03
     Davidson diagonalization with overlap
     ethr =  1.28E-10,  avg # of iterations =  1.5
     ethr =  1.28E-10,  avg # of iterations =  1.5

     total cpu time spent up to now is      260.3 secs

     total energy              =   -4505.68286127 Ry
     estimated scf accuracy    <       0.00000073 Ry

     iteration # 10     ecut=    80.00 Ry     beta= 0.03
     Davidson diagonalization with overlap

     total cpu time spent up to now is      262.8 secs

     total energy              =   -4505.68286127 Ry
     estimated scf accuracy    <       0.00000073 Ry

     iteration # 10     ecut=    80.00 Ry     beta= 0.03
     Davidson diagonalization with overlap
     ethr =  1.28E-10,  avg # of iterations =  1.0
     ethr =  1.28E-10,  avg # of iterations =  1.0

     total cpu time spent up to now is      270.7 secs

     total energy              =   -4505.68286127 Ry
     estimated scf accuracy    <       0.00000073 Ry

     iteration # 10     ecut=    80.00 Ry     beta= 0.03
     Davidson diagonalization with overlap

     total cpu time spent up to now is      270.9 secs

     total energy              =   -4505.68286127 Ry
     estimated scf accuracy    <       0.00000073 Ry

     iteration # 10     ecut=    80.00 Ry     beta= 0.03
     Davidson diagonalization with overlap
     ethr =  1.28E-10,  avg # of iterations =  1.0
     ethr =  1.28E-10,  avg # of iterations =  1.0

     total cpu time spent up to now is      284.8 secs

     total energy              =   -4505.68286129 Ry
     estimated scf accuracy    <       0.00000030 Ry

     iteration # 11     ecut=    80.00 Ry     beta= 0.03
     Davidson diagonalization with overlap

     total cpu time spent up to now is      287.6 secs

     total energy              =   -4505.68286129 Ry
     estimated scf accuracy    <       0.00000030 Ry

     iteration # 11     ecut=    80.00 Ry     beta= 0.03
     Davidson diagonalization with overlap
     ethr =  9.58E-11,  avg # of iterations =  1.5
     ethr =  9.58E-11,  avg # of iterations =  1.5

     total cpu time spent up to now is      295.8 secs

     total energy              =   -4505.68286129 Ry
     estimated scf accuracy    <       0.00000030 Ry

     iteration # 11     ecut=    80.00 Ry     beta= 0.03
     Davidson diagonalization with overlap

     total cpu time spent up to now is      296.3 secs

     total energy              =   -4505.68286129 Ry
     estimated scf accuracy    <       0.00000030 Ry

     iteration # 11     ecut=    80.00 Ry     beta= 0.03
     Davidson diagonalization with overlap
     ethr =  9.58E-11,  avg # of iterations =  1.5
     ethr =  9.58E-11,  avg # of iterations =  1.5

     total cpu time spent up to now is      310.6 secs

     total energy              =   -4505.68286128 Ry
     estimated scf accuracy    <       0.00000021 Ry

     iteration # 12     ecut=    80.00 Ry     beta= 0.03
     Davidson diagonalization with overlap

     total cpu time spent up to now is      313.4 secs

     total energy              =   -4505.68286128 Ry
     estimated scf accuracy    <       0.00000021 Ry

     iteration # 12     ecut=    80.00 Ry     beta= 0.03
     Davidson diagonalization with overlap
     ethr =  6.62E-11,  avg # of iterations =  1.5
     ethr =  6.62E-11,  avg # of iterations =  1.5

     total cpu time spent up to now is      321.6 secs

     total energy              =   -4505.68286128 Ry
     estimated scf accuracy    <       0.00000021 Ry

     iteration # 12     ecut=    80.00 Ry     beta= 0.03
     Davidson diagonalization with overlap

     total cpu time spent up to now is      322.4 secs

     total energy              =   -4505.68286128 Ry
     estimated scf accuracy    <       0.00000021 Ry

     iteration # 12     ecut=    80.00 Ry     beta= 0.03
     Davidson diagonalization with overlap
     ethr =  6.62E-11,  avg # of iterations =  1.5
     ethr =  6.62E-11,  avg # of iterations =  1.5

     total cpu time spent up to now is      336.0 secs

     total energy              =   -4505.68286128 Ry
     estimated scf accuracy    <       0.00000022 Ry

     iteration # 13     ecut=    80.00 Ry     beta= 0.03
     Davidson diagonalization with overlap

     total cpu time spent up to now is      338.5 secs

     total energy              =   -4505.68286128 Ry
     estimated scf accuracy    <       0.00000022 Ry

     iteration # 13     ecut=    80.00 Ry     beta= 0.03
     Davidson diagonalization with overlap
     ethr =  6.62E-11,  avg # of iterations =  1.0
     ethr =  6.62E-11,  avg # of iterations =  1.0

     total cpu time spent up to now is      346.5 secs

     total energy              =   -4505.68286128 Ry
     estimated scf accuracy    <       0.00000022 Ry

     iteration # 13     ecut=    80.00 Ry     beta= 0.03
     Davidson diagonalization with overlap

     total cpu time spent up to now is      347.7 secs

     total energy              =   -4505.68286128 Ry
     estimated scf accuracy    <       0.00000022 Ry

     iteration # 13     ecut=    80.00 Ry     beta= 0.03
     Davidson diagonalization with overlap
     ethr =  6.62E-11,  avg # of iterations =  1.0
     ethr =  6.62E-11,  avg # of iterations =  1.0

     total cpu time spent up to now is      360.2 secs

     total energy              =   -4505.68286128 Ry
     estimated scf accuracy    <       0.00000022 Ry

     iteration # 14     ecut=    80.00 Ry     beta= 0.03
     Davidson diagonalization with overlap

     total cpu time spent up to now is      362.9 secs

     total energy              =   -4505.68286128 Ry
     estimated scf accuracy    <       0.00000022 Ry

     iteration # 14     ecut=    80.00 Ry     beta= 0.03
     Davidson diagonalization with overlap
     ethr =  6.62E-11,  avg # of iterations =  1.5
     ethr =  6.62E-11,  avg # of iterations =  1.5

     total cpu time spent up to now is      371.4 secs

     total energy              =   -4505.68286128 Ry
     estimated scf accuracy    <       0.00000022 Ry

     iteration # 14     ecut=    80.00 Ry     beta= 0.03
     Davidson diagonalization with overlap

     total cpu time spent up to now is      372.6 secs

     total energy              =   -4505.68286128 Ry
     estimated scf accuracy    <       0.00000022 Ry

     iteration # 14     ecut=    80.00 Ry     beta= 0.03
     Davidson diagonalization with overlap
     ethr =  6.62E-11,  avg # of iterations =  1.5
     ethr =  6.62E-11,  avg # of iterations =  1.5

     total cpu time spent up to now is      385.5 secs

     total energy              =   -4505.68286127 Ry
     estimated scf accuracy    <       0.00000011 Ry

     iteration # 15     ecut=    80.00 Ry     beta= 0.03
     Davidson diagonalization with overlap

     total cpu time spent up to now is      388.4 secs

     total energy              =   -4505.68286127 Ry
     estimated scf accuracy    <       0.00000011 Ry

     iteration # 15     ecut=    80.00 Ry     beta= 0.03
     Davidson diagonalization with overlap
     ethr =  3.60E-11,  avg # of iterations = 11.0

     total cpu time spent up to now is      398.6 secs

     total energy              =   -4505.68286127 Ry
     estimated scf accuracy    <       0.00000011 Ry

     iteration # 15     ecut=    80.00 Ry     beta= 0.03
     Davidson diagonalization with overlap

     total cpu time spent up to now is      400.7 secs

     total energy              =   -4505.68286127 Ry
     estimated scf accuracy    <       0.00000011 Ry

     iteration # 15     ecut=    80.00 Ry     beta= 0.03
     Davidson diagonalization with overlap
     ethr =  3.60E-11,  avg # of iterations = 11.0
     ethr =  3.60E-11,  avg # of iterations = 11.0
     ethr =  3.60E-11,  avg # of iterations = 11.0

     total cpu time spent up to now is      418.2 secs

     total energy              =   -4505.68286129 Ry
     estimated scf accuracy    <       0.00000008 Ry

     iteration # 16     ecut=    80.00 Ry     beta= 0.03
     Davidson diagonalization with overlap

     total cpu time spent up to now is      421.0 secs

     total energy              =   -4505.68286129 Ry
     estimated scf accuracy    <       0.00000008 Ry

     iteration # 16     ecut=    80.00 Ry     beta= 0.03
     Davidson diagonalization with overlap
     ethr =  2.65E-11,  avg # of iterations =  1.5
     ethr =  2.65E-11,  avg # of iterations =  1.5

     total cpu time spent up to now is      429.6 secs

     total energy              =   -4505.68286129 Ry
     estimated scf accuracy    <       0.00000008 Ry

     iteration # 16     ecut=    80.00 Ry     beta= 0.03
     Davidson diagonalization with overlap

     total cpu time spent up to now is      431.4 secs

     total energy              =   -4505.68286129 Ry
     estimated scf accuracy    <       0.00000008 Ry

     iteration # 16     ecut=    80.00 Ry     beta= 0.03
     Davidson diagonalization with overlap
     ethr =  2.65E-11,  avg # of iterations =  1.5
     ethr =  2.65E-11,  avg # of iterations =  1.5

     total cpu time spent up to now is      443.5 secs

     total energy              =   -4505.68286129 Ry
     estimated scf accuracy    <       0.00000007 Ry

     iteration # 17     ecut=    80.00 Ry     beta= 0.03
     Davidson diagonalization with overlap

     total cpu time spent up to now is      446.3 secs

     total energy              =   -4505.68286129 Ry
     estimated scf accuracy    <       0.00000007 Ry

     iteration # 17     ecut=    80.00 Ry     beta= 0.03
     Davidson diagonalization with overlap
     ethr =  2.20E-11,  avg # of iterations =  1.5
     ethr =  2.20E-11,  avg # of iterations =  1.5

     total cpu time spent up to now is      455.2 secs

     total energy              =   -4505.68286129 Ry
     estimated scf accuracy    <       0.00000007 Ry

     iteration # 17     ecut=    80.00 Ry     beta= 0.03
     Davidson diagonalization with overlap

     total cpu time spent up to now is      457.2 secs

     total energy              =   -4505.68286129 Ry
     estimated scf accuracy    <       0.00000007 Ry

     iteration # 17     ecut=    80.00 Ry     beta= 0.03
     Davidson diagonalization with overlap
     ethr =  2.20E-11,  avg # of iterations =  1.5
     ethr =  2.20E-11,  avg # of iterations =  1.5

     total cpu time spent up to now is      469.2 secs

     total energy              =   -4505.68286129 Ry
     estimated scf accuracy    <       0.00000006 Ry

     iteration # 18     ecut=    80.00 Ry     beta= 0.03
     Davidson diagonalization with overlap

     total cpu time spent up to now is      472.1 secs

     total energy              =   -4505.68286129 Ry
     estimated scf accuracy    <       0.00000006 Ry

     iteration # 18     ecut=    80.00 Ry     beta= 0.03
     Davidson diagonalization with overlap
     ethr =  1.83E-11,  avg # of iterations =  2.0
     ethr =  1.83E-11,  avg # of iterations =  2.0

     total cpu time spent up to now is      481.7 secs

     total energy              =   -4505.68286129 Ry
     estimated scf accuracy    <       0.00000006 Ry

     iteration # 18     ecut=    80.00 Ry     beta= 0.03
     Davidson diagonalization with overlap

     total cpu time spent up to now is      483.7 secs

     total energy              =   -4505.68286129 Ry
     estimated scf accuracy    <       0.00000006 Ry

     iteration # 18     ecut=    80.00 Ry     beta= 0.03
     Davidson diagonalization with overlap
     ethr =  1.83E-11,  avg # of iterations =  2.0
     ethr =  1.83E-11,  avg # of iterations =  2.0

     total cpu time spent up to now is      496.2 secs

     total energy              =   -4505.68286129 Ry
     estimated scf accuracy    <       0.00000005 Ry

     iteration # 19     ecut=    80.00 Ry     beta= 0.03
     Davidson diagonalization with overlap

     total cpu time spent up to now is      499.0 secs

     total energy              =   -4505.68286129 Ry
     estimated scf accuracy    <       0.00000005 Ry

     iteration # 19     ecut=    80.00 Ry     beta= 0.03
     Davidson diagonalization with overlap
     ethr =  1.43E-11,  avg # of iterations =  2.0
     ethr =  1.43E-11,  avg # of iterations =  2.0

     total cpu time spent up to now is      508.6 secs

     total energy              =   -4505.68286129 Ry
     estimated scf accuracy    <       0.00000005 Ry

     iteration # 19     ecut=    80.00 Ry     beta= 0.03
     Davidson diagonalization with overlap

     total cpu time spent up to now is      511.2 secs

     total energy              =   -4505.68286129 Ry
     estimated scf accuracy    <       0.00000005 Ry

     iteration # 19     ecut=    80.00 Ry     beta= 0.03
     Davidson diagonalization with overlap
     ethr =  1.43E-11,  avg # of iterations =  2.0
     ethr =  1.43E-11,  avg # of iterations =  2.0

     total cpu time spent up to now is      523.0 secs

     total energy              =   -4505.68286128 Ry
     estimated scf accuracy    <       0.00000003 Ry

     iteration # 20     ecut=    80.00 Ry     beta= 0.03
     Davidson diagonalization with overlap

     total cpu time spent up to now is      526.0 secs

     total energy              =   -4505.68286128 Ry
     estimated scf accuracy    <       0.00000003 Ry

     iteration # 20     ecut=    80.00 Ry     beta= 0.03
     Davidson diagonalization with overlap
     ethr =  8.55E-12,  avg # of iterations = 12.5

     total cpu time spent up to now is      538.4 secs

     total energy              =   -4505.68286128 Ry
     estimated scf accuracy    <       0.00000003 Ry

     iteration # 20     ecut=    80.00 Ry     beta= 0.03
     Davidson diagonalization with overlap
     ethr =  8.55E-12,  avg # of iterations = 12.5

     total cpu time spent up to now is      542.3 secs

     total energy              =   -4505.68286128 Ry
     estimated scf accuracy    <       0.00000003 Ry

     iteration # 20     ecut=    80.00 Ry     beta= 0.03
     Davidson diagonalization with overlap
     ethr =  8.55E-12,  avg # of iterations = 12.5
     ethr =  8.55E-12,  avg # of iterations = 12.5

     total cpu time spent up to now is      559.8 secs

     total energy              =   -4505.68286129 Ry
     estimated scf accuracy    <       0.00000006 Ry

     iteration # 21     ecut=    80.00 Ry     beta= 0.03
     Davidson diagonalization with overlap

     total cpu time spent up to now is      562.3 secs

     total energy              =   -4505.68286129 Ry
     estimated scf accuracy    <       0.00000006 Ry

     iteration # 21     ecut=    80.00 Ry     beta= 0.03
     Davidson diagonalization with overlap
     ethr =  8.55E-12,  avg # of iterations =  1.0
     ethr =  8.55E-12,  avg # of iterations =  1.0

     total cpu time spent up to now is      571.2 secs

     total energy              =   -4505.68286129 Ry
     estimated scf accuracy    <       0.00000006 Ry

     iteration # 21     ecut=    80.00 Ry     beta= 0.03
     Davidson diagonalization with overlap

     total cpu time spent up to now is      574.4 secs

     total energy              =   -4505.68286129 Ry
     estimated scf accuracy    <       0.00000006 Ry

     iteration # 21     ecut=    80.00 Ry     beta= 0.03
     Davidson diagonalization with overlap
     ethr =  8.55E-12,  avg # of iterations =  1.0
     ethr =  8.55E-12,  avg # of iterations =  1.0

     total cpu time spent up to now is      584.2 secs

     total energy              =   -4505.68286128 Ry
     estimated scf accuracy    <       0.00000003 Ry

     iteration # 22     ecut=    80.00 Ry     beta= 0.03
     Davidson diagonalization with overlap

     total cpu time spent up to now is      586.6 secs

     total energy              =   -4505.68286128 Ry
     estimated scf accuracy    <       0.00000003 Ry

     iteration # 22     ecut=    80.00 Ry     beta= 0.03
     Davidson diagonalization with overlap
     ethr =  8.55E-12,  avg # of iterations = 11.5
     ethr =  8.55E-12,  avg # of iterations = 11.5

     total cpu time spent up to now is      598.9 secs

     total energy              =   -4505.68286128 Ry
     estimated scf accuracy    <       0.00000003 Ry

     iteration # 22     ecut=    80.00 Ry     beta= 0.03
     Davidson diagonalization with overlap

     total cpu time spent up to now is      602.8 secs

     total energy              =   -4505.68286128 Ry
     estimated scf accuracy    <       0.00000003 Ry

     iteration # 22     ecut=    80.00 Ry     beta= 0.03
     Davidson diagonalization with overlap
     ethr =  8.55E-12,  avg # of iterations = 11.5
     ethr =  8.55E-12,  avg # of iterations = 11.5

     total cpu time spent up to now is      617.6 secs

     total energy              =   -4505.68286129 Ry
     estimated scf accuracy    <       0.00000002 Ry

     iteration # 23     ecut=    80.00 Ry     beta= 0.03
     Davidson diagonalization with overlap

     total cpu time spent up to now is      619.8 secs

     total energy              =   -4505.68286129 Ry
     estimated scf accuracy    <       0.00000002 Ry

     iteration # 23     ecut=    80.00 Ry     beta= 0.03
     Davidson diagonalization with overlap
     ethr =  4.84E-12,  avg # of iterations =  2.0
     ethr =  4.84E-12,  avg # of iterations =  2.0

     total cpu time spent up to now is      630.2 secs

     total energy              =   -4505.68286129 Ry
     estimated scf accuracy    <       0.00000002 Ry

     iteration # 23     ecut=    80.00 Ry     beta= 0.03
     Davidson diagonalization with overlap

     total cpu time spent up to now is      634.2 secs

     total energy              =   -4505.68286129 Ry
     estimated scf accuracy    <       0.00000002 Ry

     iteration # 23     ecut=    80.00 Ry     beta= 0.03
     Davidson diagonalization with overlap
     ethr =  4.84E-12,  avg # of iterations =  2.0
     ethr =  4.84E-12,  avg # of iterations =  2.0

     total cpu time spent up to now is      644.1 secs

     total energy              =   -4505.68286129 Ry
     estimated scf accuracy    <          7.6E-09 Ry

     iteration # 24     ecut=    80.00 Ry     beta= 0.03
     Davidson diagonalization with overlap

     total cpu time spent up to now is      646.8 secs

     total energy              =   -4505.68286129 Ry
     estimated scf accuracy    <          7.6E-09 Ry

     iteration # 24     ecut=    80.00 Ry     beta= 0.03
     Davidson diagonalization with overlap
     ethr =  2.41E-12,  avg # of iterations = 10.0
     ethr =  2.41E-12,  avg # of iterations = 10.0

     total cpu time spent up to now is      658.8 secs

     total energy              =   -4505.68286129 Ry
     estimated scf accuracy    <          7.6E-09 Ry

     iteration # 24     ecut=    80.00 Ry     beta= 0.03
     Davidson diagonalization with overlap

     total cpu time spent up to now is      662.7 secs

     total energy              =   -4505.68286129 Ry
     estimated scf accuracy    <          7.6E-09 Ry

     iteration # 24     ecut=    80.00 Ry     beta= 0.03
     Davidson diagonalization with overlap
     ethr =  2.41E-12,  avg # of iterations = 10.0
     ethr =  2.41E-12,  avg # of iterations = 10.0

     total cpu time spent up to now is      676.1 secs

     total energy              =   -4505.68286129 Ry
     estimated scf accuracy    <          6.7E-09 Ry

     iteration # 25     ecut=    80.00 Ry     beta= 0.03
     Davidson diagonalization with overlap

     total cpu time spent up to now is      678.5 secs

     total energy              =   -4505.68286129 Ry
     estimated scf accuracy    <          6.7E-09 Ry

     iteration # 25     ecut=    80.00 Ry     beta= 0.03
     Davidson diagonalization with overlap
     ethr =  2.14E-12,  avg # of iterations =  1.5
     ethr =  2.14E-12,  avg # of iterations =  1.5

     total cpu time spent up to now is      688.2 secs

     total energy              =   -4505.68286129 Ry
     estimated scf accuracy    <          6.7E-09 Ry

     iteration # 25     ecut=    80.00 Ry     beta= 0.03
     Davidson diagonalization with overlap

     total cpu time spent up to now is      693.2 secs

     total energy              =   -4505.68286129 Ry
     estimated scf accuracy    <          6.7E-09 Ry

     iteration # 25     ecut=    80.00 Ry     beta= 0.03
     Davidson diagonalization with overlap
     ethr =  2.14E-12,  avg # of iterations =  1.5
     ethr =  2.14E-12,  avg # of iterations =  1.5

     total cpu time spent up to now is      701.7 secs

     total energy              =   -4505.68286129 Ry
     estimated scf accuracy    <          5.0E-09 Ry

     iteration # 26     ecut=    80.00 Ry     beta= 0.03
     Davidson diagonalization with overlap

     total cpu time spent up to now is      704.3 secs

     total energy              =   -4505.68286129 Ry
     estimated scf accuracy    <          5.0E-09 Ry

     iteration # 26     ecut=    80.00 Ry     beta= 0.03
     Davidson diagonalization with overlap
     ethr =  1.60E-12,  avg # of iterations =  2.0
     ethr =  1.60E-12,  avg # of iterations =  2.0

     total cpu time spent up to now is      714.4 secs

     total energy              =   -4505.68286129 Ry
     estimated scf accuracy    <          5.0E-09 Ry

     iteration # 26     ecut=    80.00 Ry     beta= 0.03
     Davidson diagonalization with overlap

     total cpu time spent up to now is      719.6 secs

     total energy              =   -4505.68286129 Ry
     estimated scf accuracy    <          5.0E-09 Ry

     iteration # 26     ecut=    80.00 Ry     beta= 0.03
     Davidson diagonalization with overlap
     ethr =  1.60E-12,  avg # of iterations =  2.0
     ethr =  1.60E-12,  avg # of iterations =  2.0

     total cpu time spent up to now is      728.5 secs

     total energy              =   -4505.68286129 Ry
     estimated scf accuracy    <          5.6E-09 Ry

     iteration # 27     ecut=    80.00 Ry     beta= 0.03
     Davidson diagonalization with overlap

     total cpu time spent up to now is      731.1 secs

     total energy              =   -4505.68286129 Ry
     estimated scf accuracy    <          5.6E-09 Ry

     iteration # 27     ecut=    80.00 Ry     beta= 0.03
     Davidson diagonalization with overlap
     ethr =  1.60E-12,  avg # of iterations =  2.0
     ethr =  1.60E-12,  avg # of iterations =  2.0

     total cpu time spent up to now is      741.3 secs

     total energy              =   -4505.68286129 Ry
     estimated scf accuracy    <          5.6E-09 Ry

     iteration # 27     ecut=    80.00 Ry     beta= 0.03
     Davidson diagonalization with overlap

     total cpu time spent up to now is      746.8 secs

     total energy              =   -4505.68286129 Ry
     estimated scf accuracy    <          5.6E-09 Ry

     iteration # 27     ecut=    80.00 Ry     beta= 0.03
     Davidson diagonalization with overlap
     ethr =  1.60E-12,  avg # of iterations =  2.0
     ethr =  1.60E-12,  avg # of iterations =  2.0

     total cpu time spent up to now is      755.4 secs

     total energy              =   -4505.68286129 Ry
     estimated scf accuracy    <          2.6E-09 Ry

     iteration # 28     ecut=    80.00 Ry     beta= 0.03
     Davidson diagonalization with overlap

     total cpu time spent up to now is      758.1 secs

     total energy              =   -4505.68286129 Ry
     estimated scf accuracy    <          2.6E-09 Ry

     iteration # 28     ecut=    80.00 Ry     beta= 0.03
     Davidson diagonalization with overlap
     ethr =  8.18E-13,  avg # of iterations =  2.0
     ethr =  8.18E-13,  avg # of iterations =  2.0

     total cpu time spent up to now is      768.2 secs

     total energy              =   -4505.68286129 Ry
     estimated scf accuracy    <          2.6E-09 Ry

     iteration # 28     ecut=    80.00 Ry     beta= 0.03
     Davidson diagonalization with overlap

     total cpu time spent up to now is      773.7 secs

     total energy              =   -4505.68286129 Ry
     estimated scf accuracy    <          2.6E-09 Ry

     iteration # 28     ecut=    80.00 Ry     beta= 0.03
     Davidson diagonalization with overlap
     ethr =  8.18E-13,  avg # of iterations =  2.0
     ethr =  8.18E-13,  avg # of iterations =  2.0

     total cpu time spent up to now is      782.3 secs

     total energy              =   -4505.68286129 Ry
     estimated scf accuracy    <          2.0E-09 Ry

     iteration # 29     ecut=    80.00 Ry     beta= 0.03
     Davidson diagonalization with overlap

     total cpu time spent up to now is      785.0 secs

     total energy              =   -4505.68286129 Ry
     estimated scf accuracy    <          2.0E-09 Ry

     iteration # 29     ecut=    80.00 Ry     beta= 0.03
     Davidson diagonalization with overlap
     ethr =  6.28E-13,  avg # of iterations = 12.0
     ethr =  6.28E-13,  avg # of iterations = 12.0

     total cpu time spent up to now is      797.3 secs

     total energy              =   -4505.68286129 Ry
     estimated scf accuracy    <          2.0E-09 Ry

     iteration # 29     ecut=    80.00 Ry     beta= 0.03
     Davidson diagonalization with overlap

     total cpu time spent up to now is      802.2 secs

     total energy              =   -4505.68286129 Ry
     estimated scf accuracy    <          2.0E-09 Ry

     iteration # 29     ecut=    80.00 Ry     beta= 0.03
     Davidson diagonalization with overlap
     ethr =  6.28E-13,  avg # of iterations = 12.0
     ethr =  6.28E-13,  avg # of iterations = 12.0

     total cpu time spent up to now is      816.0 secs

     total energy              =   -4505.68286129 Ry
     estimated scf accuracy    <          4.2E-09 Ry

     iteration # 30     ecut=    80.00 Ry     beta= 0.03
     Davidson diagonalization with overlap

     total cpu time spent up to now is      818.7 secs

     total energy              =   -4505.68286129 Ry
     estimated scf accuracy    <          4.2E-09 Ry

     iteration # 30     ecut=    80.00 Ry     beta= 0.03
     Davidson diagonalization with overlap
     ethr =  6.28E-13,  avg # of iterations =  2.0
     ethr =  6.28E-13,  avg # of iterations =  2.0

     total cpu time spent up to now is      828.7 secs

     total energy              =   -4505.68286129 Ry
     estimated scf accuracy    <          4.2E-09 Ry

     iteration # 30     ecut=    80.00 Ry     beta= 0.03
     Davidson diagonalization with overlap
     ethr =  6.28E-13,  avg # of iterations =  2.0

     total cpu time spent up to now is      834.4 secs

     total energy              =   -4505.68286129 Ry
     estimated scf accuracy    <          4.2E-09 Ry

     iteration # 30     ecut=    80.00 Ry     beta= 0.03
     Davidson diagonalization with overlap
     ethr =  6.28E-13,  avg # of iterations =  2.0

     total cpu time spent up to now is      842.6 secs

     total energy              =   -4505.68286129 Ry
     estimated scf accuracy    <          2.6E-09 Ry

     iteration # 31     ecut=    80.00 Ry     beta= 0.03
     Davidson diagonalization with overlap

     total cpu time spent up to now is      845.3 secs

     total energy              =   -4505.68286129 Ry
     estimated scf accuracy    <          2.6E-09 Ry

     iteration # 31     ecut=    80.00 Ry     beta= 0.03
     Davidson diagonalization with overlap
     ethr =  6.28E-13,  avg # of iterations = 11.5
     ethr =  6.28E-13,  avg # of iterations = 11.5

     total cpu time spent up to now is      857.5 secs

     total energy              =   -4505.68286129 Ry
     estimated scf accuracy    <          2.6E-09 Ry

     iteration # 31     ecut=    80.00 Ry     beta= 0.03
     Davidson diagonalization with overlap

     total cpu time spent up to now is      863.0 secs

     total energy              =   -4505.68286129 Ry
     estimated scf accuracy    <          2.6E-09 Ry

     iteration # 31     ecut=    80.00 Ry     beta= 0.03
     Davidson diagonalization with overlap
     ethr =  6.28E-13,  avg # of iterations = 11.5
     ethr =  6.28E-13,  avg # of iterations = 11.5

     total cpu time spent up to now is      875.7 secs

     total energy              =   -4505.68286129 Ry
     estimated scf accuracy    <          1.5E-09 Ry

     iteration # 32     ecut=    80.00 Ry     beta= 0.03
     Davidson diagonalization with overlap

     total cpu time spent up to now is      878.5 secs

     total energy              =   -4505.68286129 Ry
     estimated scf accuracy    <          1.5E-09 Ry

     iteration # 32     ecut=    80.00 Ry     beta= 0.03
     Davidson diagonalization with overlap
     ethr =  4.74E-13,  avg # of iterations =  5.0
     ethr =  4.74E-13,  avg # of iterations =  5.0

     total cpu time spent up to now is      889.3 secs

     total energy              =   -4505.68286129 Ry
     estimated scf accuracy    <          1.5E-09 Ry

     iteration # 32     ecut=    80.00 Ry     beta= 0.03
     Davidson diagonalization with overlap

     total cpu time spent up to now is      895.3 secs

     total energy              =   -4505.68286129 Ry
     estimated scf accuracy    <          1.5E-09 Ry

     iteration # 32     ecut=    80.00 Ry     beta= 0.03
     Davidson diagonalization with overlap
     ethr =  4.74E-13,  avg # of iterations =  5.0
     ethr =  4.74E-13,  avg # of iterations =  5.0

     total cpu time spent up to now is      904.5 secs

     total energy              =   -4505.68286129 Ry
     estimated scf accuracy    <          3.2E-10 Ry

     iteration # 33     ecut=    80.00 Ry     beta= 0.03
     Davidson diagonalization with overlap

     total cpu time spent up to now is      907.4 secs

     total energy              =   -4505.68286129 Ry
     estimated scf accuracy    <          3.2E-10 Ry

     iteration # 33     ecut=    80.00 Ry     beta= 0.03
     Davidson diagonalization with overlap
     ethr =  1.02E-13,  avg # of iterations = 11.0
     ethr =  1.02E-13,  avg # of iterations = 11.0

     total cpu time spent up to now is      920.3 secs

     total energy              =   -4505.68286129 Ry
     estimated scf accuracy    <          3.2E-10 Ry

     iteration # 33     ecut=    80.00 Ry     beta= 0.03
     Davidson diagonalization with overlap

     total cpu time spent up to now is      926.6 secs

     total energy              =   -4505.68286129 Ry
     estimated scf accuracy    <          3.2E-10 Ry

     iteration # 33     ecut=    80.00 Ry     beta= 0.03
     Davidson diagonalization with overlap
     ethr =  1.02E-13,  avg # of iterations = 11.0
     ethr =  1.02E-13,  avg # of iterations = 11.0

     total cpu time spent up to now is      939.8 secs

     total energy              =   -4505.68286129 Ry
     estimated scf accuracy    <          5.5E-10 Ry

     iteration # 34     ecut=    80.00 Ry     beta= 0.03
     Davidson diagonalization with overlap

     total cpu time spent up to now is      942.8 secs

     total energy              =   -4505.68286129 Ry
     estimated scf accuracy    <          5.5E-10 Ry

     iteration # 34     ecut=    80.00 Ry     beta= 0.03
     Davidson diagonalization with overlap
     ethr =  1.02E-13,  avg # of iterations =  1.0
     ethr =  1.02E-13,  avg # of iterations =  1.0

     total cpu time spent up to now is      951.6 secs

     total energy              =   -4505.68286129 Ry
     estimated scf accuracy    <          5.5E-10 Ry

     iteration # 34     ecut=    80.00 Ry     beta= 0.03
     Davidson diagonalization with overlap
     ethr =  1.02E-13,  avg # of iterations =  1.0

     total cpu time spent up to now is      957.6 secs

     total energy              =   -4505.68286129 Ry
     estimated scf accuracy    <          5.5E-10 Ry

     iteration # 34     ecut=    80.00 Ry     beta= 0.03
     Davidson diagonalization with overlap
     ethr =  1.02E-13,  avg # of iterations =  1.0

     total cpu time spent up to now is      964.5 secs

     total energy              =   -4505.68286129 Ry
     estimated scf accuracy    <          5.2E-10 Ry

     iteration # 35     ecut=    80.00 Ry     beta= 0.03
     Davidson diagonalization with overlap

     total cpu time spent up to now is      967.2 secs

     total energy              =   -4505.68286129 Ry
     estimated scf accuracy    <          5.2E-10 Ry

     iteration # 35     ecut=    80.00 Ry     beta= 0.03
     Davidson diagonalization with overlap
     ethr =  1.02E-13,  avg # of iterations =  1.0
     ethr =  1.02E-13,  avg # of iterations =  1.0

     total cpu time spent up to now is      976.4 secs

     total energy              =   -4505.68286129 Ry
     estimated scf accuracy    <          5.2E-10 Ry

     iteration # 35     ecut=    80.00 Ry     beta= 0.03
     Davidson diagonalization with overlap
     ethr =  1.02E-13,  avg # of iterations =  1.0

     total cpu time spent up to now is      982.4 secs

     total energy              =   -4505.68286129 Ry
     estimated scf accuracy    <          5.2E-10 Ry

     iteration # 35     ecut=    80.00 Ry     beta= 0.03
     Davidson diagonalization with overlap
     ethr =  1.02E-13,  avg # of iterations =  1.0

     total cpu time spent up to now is      989.2 secs

     total energy              =   -4505.68286129 Ry
     estimated scf accuracy    <          4.7E-10 Ry

     iteration # 36     ecut=    80.00 Ry     beta= 0.03
     Davidson diagonalization with overlap

     total cpu time spent up to now is      991.8 secs

     total energy              =   -4505.68286129 Ry
     estimated scf accuracy    <          4.7E-10 Ry

     iteration # 36     ecut=    80.00 Ry     beta= 0.03
[...]
     atom   30 type  3   force =     0.00080584   -0.00135775   -0.00160510
     atom   31 type  3   force =     0.00000000    0.00156361    0.03249774
     atom   32 type  3   force =     0.00162969    0.00379085    0.01314967
     atom   33 type  3   force =     0.00000000   -0.00147867   -0.00342660
     atom   34 type  3   force =    -0.00120999   -0.00364292    0.01552073
     atom   35 type  3   force =    -0.00080584   -0.00135775   -0.00160510
     atom   36 type  3   force =     0.00000000    0.00237449    0.02771122
     atom   37 type  3   force =    -0.00162969    0.00379085    0.01314967
     atom   38 type  3   force =     0.00000000   -0.00104925   -0.00433716
     atom   39 type  3   force =     0.00000000    0.00161342    0.00712611

     Total force =     0.542899     Total SCF correction =     0.000018


     Computing stress (Cartesian axis) and pressure


     Forces acting on atoms (cartesian axes, Ry/au):

     atom    1 type  1   force =     0.00466874    0.00496617   -0.21182463
     atom    2 type  1   force =     0.00121241   -0.00067076    0.01343327
     atom    3 type  1   force =     0.00103893   -0.00069168    0.21316974
     atom    4 type  1   force =    -0.00580832   -0.00583598   -0.01136951
     atom    5 type  1   force =    -0.00121241   -0.00067076    0.01343327
     atom    6 type  1   force =     0.00580832   -0.00583598   -0.01136951
     atom    7 type  1   force =    -0.00103893   -0.00069168    0.21316974
     atom    8 type  1   force =    -0.00466874    0.00496617   -0.21182463
     atom    9 type  2   force =     0.00000000   -0.00260632   -0.03309969
     atom   10 type  2   force =     0.00000000   -0.00137660   -0.01102972
     atom   11 type  2   force =     0.00000000    0.00265174   -0.01115211
     atom   12 type  2   force =     0.00000000    0.04750527    0.02477236
     atom   13 type  2   force =     0.00000000    0.00020553   -0.00352083
     atom   14 type  2   force =     0.00000000    0.04132326    0.00779549
     atom   15 type  2   force =     0.00000000   -0.04521707    0.00809499
     atom   16 type  2   force =     0.00000000   -0.03850833    0.00396814
     atom   17 type  3   force =    -0.00067241   -0.00111086    0.00153051
     atom   18 type  3   force =    -0.15668361   -0.00437323   -0.01449535
     atom   19 type  3   force =     0.00000000   -0.15653477   -0.02964907
     atom   20 type  3   force =    -0.00103224    0.00083713    0.00045035
     atom   21 type  3   force =    -0.01072120    0.00476044   -0.01456474
     atom   22 type  3   force =     0.00000000    0.15526633    0.00279713
     atom   23 type  3   force =     0.00067241   -0.00111086    0.00153051
     atom   24 type  3   force =     0.15668361   -0.00437323   -0.01449535
     atom   25 type  3   force =     0.00000000   -0.00986186   -0.02883818
     atom   26 type  3   force =     0.00103224    0.00083713    0.00045035
     atom   27 type  3   force =     0.01072120    0.00476044   -0.01456474
     atom   28 type  3   force =     0.00000000    0.01078640    0.00350030
     atom   29 type  3   force =     0.00120999   -0.00364292    0.01552073
     atom   30 type  3   force =     0.00080584   -0.00135775   -0.00160510
     atom   31 type  3   force =     0.00000000    0.00156361    0.03249774
     atom   32 type  3   force =     0.00162969    0.00379085    0.01314967
     atom   33 type  3   force =     0.00000000   -0.00147867   -0.00342660
     atom   34 type  3   force =    -0.00120999   -0.00364292    0.01552073
     atom   35 type  3   force =    -0.00080584   -0.00135775   -0.00160510
     atom   36 type  3   force =     0.00000000    0.00237449    0.02771122
     atom   37 type  3   force =    -0.00162969    0.00379085    0.01314967
     atom   38 type  3   force =     0.00000000   -0.00104925   -0.00433716
     atom   39 type  3   force =     0.00000000    0.00161342    0.00712611

     Total force =     0.542899     Total SCF correction =     0.000018


     Computing stress (Cartesian axis) and pressure


     total cpu time spent up to now is     1135.1 secs

     End of self-consistent calculation

          k = 0.2500 0.2500 0.2500 ( 38877 PWs)   bands (ev):

   -47.2276 -47.2060 -47.1988 -47.1975 -46.9245 -46.9226 -46.9118 -46.9065
   -23.5206 -23.4584 -23.4362 -23.4333 -23.4240 -23.4223 -23.4172 -23.4164
   -23.4076 -23.4074 -23.3832 -23.3803 -23.3706 -23.2479 -23.2361 -23.2282
   -23.1168 -23.1127 -23.0995 -23.0980 -23.0966 -23.0940 -23.0844 -23.0816
   -20.7429 -20.6608 -20.6557 -20.6378 -20.5785 -20.5561 -20.5543 -20.4712
   -10.0085  -9.0629  -9.0362  -9.0091  -8.9895  -8.9647  -8.9356  -8.9271
    -8.9126  -8.8733  -8.1097  -7.9744  -7.9443  -7.6393  -7.5743  -7.5357
    -7.4877  -7.4006  -7.3832  -7.3071  -7.2400  -7.1514  -6.2822  -3.6412
    -3.5511  -3.4983  -3.4225  -3.3995  -3.3748  -3.3635  -3.2890  -3.2847
    -3.2470  -3.2278  -3.1944  -0.7117  -0.6236  -0.0100   0.0329   0.0620
     0.0714   0.0878   0.1218   0.1421   0.1816   0.1939   0.3085   4.4872
     4.5409   4.5713   5.2213   5.2721   5.4911   5.6397   5.7691   6.0258
     6.3086   6.3671   6.4951   6.5358   6.5535   6.5739   6.7661   6.8133
     6.8389   6.9022   7.0421   7.1258   7.2471   7.3487   7.3673   7.3903
     7.4208   7.4335   7.4780   7.5238   7.6232   7.7831   7.8056   7.8776
     7.9892   8.0075   8.0187   8.0885   8.1015   8.1559   8.1663   8.1973
     8.2092   8.2398   8.2598   8.3367   8.3686   8.4177   8.4956   8.7048
     8.7626   8.8276   8.9094   8.9539   9.0701   9.1718   9.3639   9.4875
    10.6717  10.7382  11.1415  11.1997  11.3064  11.3261  11.3411  11.3997
    11.4014  11.4114  11.4224  11.4422  11.4482  11.4786  11.4853  11.5089
    11.5341  11.5626  11.5686  11.6212  11.6488  11.6673  11.7018  11.7251
    11.7544  11.7734  11.7930  11.7983  11.8199  11.8332  11.8500  11.9002
    11.9273  11.9366  11.9611  11.9853  12.0198  12.0545  12.1110  12.1350
    12.1849  12.2207  12.2487  12.2642

          k =-0.2500 0.2500-0.2500 ( 38877 PWs)   bands (ev):

   -47.2276 -47.2060 -47.1988 -47.1975 -46.9245 -46.9226 -46.9118 -46.9065
   -23.5206 -23.4584 -23.4362 -23.4333 -23.4240 -23.4223 -23.4172 -23.4164
   -23.4076 -23.4074 -23.3832 -23.3803 -23.3706 -23.2479 -23.2361 -23.2282
   -23.1168 -23.1127 -23.0995 -23.0980 -23.0966 -23.0940 -23.0844 -23.0816
   -20.7428 -20.6619 -20.6556 -20.6368 -20.5793 -20.5555 -20.5543 -20.4713
   -10.0085  -9.0631  -9.0362  -9.0095  -8.9889  -8.9648  -8.9354  -8.9270
    -8.9128  -8.8733  -8.1087  -7.9766  -7.9442  -7.6391  -7.5745  -7.5354
    -7.4878  -7.3978  -7.3796  -7.3140  -7.2399  -7.1501  -6.2824  -3.6410
    -3.5509  -3.4981  -3.4231  -3.4016  -3.3750  -3.3607  -3.2894  -3.2842
    -3.2475  -3.2280  -3.1945  -0.7116  -0.6235  -0.0097   0.0328   0.0610
     0.0730   0.0876   0.1217   0.1415   0.1812   0.1946   0.3083   4.4911
     4.5399   4.5712   5.2182   5.2747   5.4723   5.6362   5.7777   6.0246
     6.3296   6.4057   6.4739   6.5282   6.5386   6.5787   6.7570   6.8505
     6.8584   6.8721   7.0175   7.1263   7.2482   7.3517   7.3639   7.3963
     7.4199   7.4334   7.4729   7.5213   7.6308   7.7866   7.7958   7.8811
     7.9823   8.0163   8.0259   8.0606   8.0923   8.1605   8.1676   8.1964
     8.2137   8.2196   8.2676   8.3411   8.3719   8.4169   8.4970   8.7105
     8.7872   8.8137   8.9163   8.9552   9.0687   9.1722   9.3626   9.4844
    10.6832  10.7390  11.1348  11.1979  11.3092  11.3203  11.3441  11.3943
    11.4024  11.4098  11.4259  11.4470  11.4516  11.4731  11.4830  11.5127
    11.5240  11.5503  11.5674  11.6139  11.6599  11.6643  11.6991  11.7272
    11.7507  11.7763  11.7954  11.8020  11.8113  11.8295  11.8590  11.9046
    11.9298  11.9430  11.9710  11.9923  12.0058  12.0426  12.1098  12.1422
    12.1903  12.2145  12.2530  12.2650

     the Fermi energy is    11.4676 ev

!    total energy              =   -4505.68286129 Ry
     total all-electron energy =    -67991.418612 Ry
     estimated scf accuracy    <          6.4E-11 Ry
     smearing contrib. (-TS)   =      -0.02007239 Ry
     internal energy E=F+TS    =   -4505.66278890 Ry

     The total energy is F=E-TS. E is the sum of the following terms:
     one-electron contribution =    -560.12731151 Ry
     hartree contribution      =     476.93546508 Ry
     xc contribution           =    -471.31465344 Ry
     ewald contribution        =   -1674.39525025 Ry
     one-center paw contrib.   =   -2276.76103878 Ry

     convergence has been achieved in  40 iterations
          total   stress  (Ry/bohr**3)                   (kbar)     P=      527.56
   0.00427433   0.00000000   0.00000000          628.78        0.00        0.00
   0.00000000   0.00428490   0.00000020            0.00      630.33        0.03
   0.00000000   0.00000020   0.00219971            0.00        0.03      323.59


     Writing all to output data dir ./tmp/SrTiO3_defect.save/ :
     XML data file, charge density, pseudopotentials, collected wavefunctions
 
     init_run     :      2.73s CPU      6.94s WALL (       1 calls)
     electrons    :    452.83s CPU   1114.55s WALL (       1 calls)
     forces       :      1.36s CPU      3.47s WALL (       1 calls)
     stress       :      4.29s CPU     11.23s WALL (       1 calls)

     Called by init_run:
     wfcinit      :      0.02s CPU      0.02s WALL (       1 calls)
     potinit      :      1.88s CPU      5.46s WALL (       1 calls)
     hinit0       :      0.47s CPU      0.48s WALL (       1 calls)

     Called by electrons:
     c_bands      :    146.68s CPU    370.16s WALL (      41 calls)
     sum_band     :     73.28s CPU    185.16s WALL (      41 calls)
     v_of_rho     :      1.71s CPU      3.71s WALL (      41 calls)
     newd         :     11.27s CPU     28.41s WALL (      41 calls)
                                       28.41s GPU  (      41 calls)
     PAW_pot      :    216.95s CPU    523.78s WALL (      41 calls)
     mix_rho      :      4.70s CPU      9.02s WALL (      41 calls)

     Called by c_bands:
     init_us_2    :      7.31s CPU     18.56s WALL (     168 calls)
     cegterg      :    136.87s CPU    350.58s WALL (      82 calls)

     Called by *egterg:
     cdiaghg      :      4.16s CPU     10.98s WALL (     372 calls)
                                       10.59s GPU  (     372 calls)
     h_psi        :     67.16s CPU    174.62s WALL (     376 calls)
                                      174.19s GPU  (     376 calls)
     s_psi        :     13.01s CPU     32.79s WALL (     376 calls)
     g_psi        :      0.00s CPU      0.67s WALL (     294 calls)
                                        0.34s GPU  (     294 calls)

     Called by h_psi:
     h_psi:calbec :      0.01s CPU     30.76s WALL (     376 calls)
                                       30.31s GPU  (     376 calls)
     vloc_psi     :     36.74s CPU     95.82s WALL (     376 calls)
                                       95.42s GPU  (     376 calls)
     add_vuspsi   :      6.98s CPU     46.29s WALL (     376 calls)
                                       45.84s GPU  (     376 calls)

     General routines
     calbec       :      0.01s CPU      0.03s WALL (     492 calls)
     fft          :      0.01s CPU      0.68s WALL (     477 calls)
                                        0.29s GPU  (     477 calls)
     ffts         :      0.00s CPU      0.10s WALL (      41 calls)
                                        0.03s GPU  (      41 calls)
     fftw         :      0.05s CPU     70.08s WALL (    5374 calls)
                                       64.58s GPU  (    5374 calls)
     davcio       :      0.00s CPU      0.04s WALL (       2 calls)
 
 
     PWSCF        :   7m42.12s CPU  18m57.32s WALL

 
   This run was terminated on:  20:12:26   6Feb2025            

=------------------------------------------------------------------------------=
   JOB DONE.
=------------------------------------------------------------------------------=
          total   stress  (Ry/bohr**3)                   (kbar)     P=      527.56
   0.00427433   0.00000000   0.00000000          628.78        0.00        0.00
   0.00000000   0.00428490   0.00000020            0.00      630.33        0.03
   0.00000000   0.00000020   0.00219971            0.00        0.03      323.59


     Writing all to output data dir ./tmp/SrTiO3_defect.save/ :

     Forces acting on atoms (cartesian axes, Ry/au):

     atom    1 type  1   force =     0.00466874    0.00496617   -0.21182463
     atom    2 type  1   force =     0.00121241   -0.00067076    0.01343327
     atom    3 type  1   force =     0.00103893   -0.00069168    0.21316974
     atom    4 type  1   force =    -0.00580832   -0.00583598   -0.01136951
     atom    5 type  1   force =    -0.00121241   -0.00067076    0.01343327
     atom    6 type  1   force =     0.00580832   -0.00583598   -0.01136951
     atom    7 type  1   force =    -0.00103893   -0.00069168    0.21316974
     atom    8 type  1   force =    -0.00466874    0.00496617   -0.21182463
     atom    9 type  2   force =     0.00000000   -0.00260632   -0.03309969
     atom   10 type  2   force =     0.00000000   -0.00137660   -0.01102972
     atom   11 type  2   force =     0.00000000    0.00265174   -0.01115211
     atom   12 type  2   force =     0.00000000    0.04750527    0.02477236
     atom   13 type  2   force =     0.00000000    0.00020553   -0.00352083
     atom   14 type  2   force =     0.00000000    0.04132326    0.00779549
     atom   15 type  2   force =     0.00000000   -0.04521707    0.00809499
     atom   16 type  2   force =     0.00000000   -0.03850833    0.00396814
     atom   17 type  3   force =    -0.00067241   -0.00111086    0.00153051
     atom   18 type  3   force =    -0.15668361   -0.00437323   -0.01449535
     atom   19 type  3   force =     0.00000000   -0.15653477   -0.02964907
     atom   20 type  3   force =    -0.00103224    0.00083713    0.00045035
     atom   21 type  3   force =    -0.01072120    0.00476044   -0.01456474
     atom   22 type  3   force =     0.00000000    0.15526633    0.00279713
     atom   23 type  3   force =     0.00067241   -0.00111086    0.00153051
     atom   24 type  3   force =     0.15668361   -0.00437323   -0.01449535
     atom   25 type  3   force =     0.00000000   -0.00986186   -0.02883818
     atom   26 type  3   force =     0.00103224    0.00083713    0.00045035
     atom   27 type  3   force =     0.01072120    0.00476044   -0.01456474
     atom   28 type  3   force =     0.00000000    0.01078640    0.00350030
     atom   29 type  3   force =     0.00120999   -0.00364292    0.01552073
     atom   30 type  3   force =     0.00080584   -0.00135775   -0.00160510
     atom   31 type  3   force =     0.00000000    0.00156361    0.03249774
     atom   32 type  3   force =     0.00162969    0.00379085    0.01314967
     atom   33 type  3   force =     0.00000000   -0.00147867   -0.00342660
     atom   34 type  3   force =    -0.00120999   -0.00364292    0.01552073
     atom   35 type  3   force =    -0.00080584   -0.00135775   -0.00160510
     atom   36 type  3   force =     0.00000000    0.00237449    0.02771122
     atom   37 type  3   force =    -0.00162969    0.00379085    0.01314967
     atom   38 type  3   force =     0.00000000   -0.00104925   -0.00433716
     atom   39 type  3   force =     0.00000000    0.00161342    0.00712611

     Total force =     0.542899     Total SCF correction =     0.000018


     Computing stress (Cartesian axis) and pressure


     total cpu time spent up to now is     1138.0 secs

     End of self-consistent calculation

          k = 0.2500 0.2500 0.2500 ( 38877 PWs)   bands (ev):

   -47.2276 -47.2060 -47.1988 -47.1975 -46.9245 -46.9226 -46.9118 -46.9065
   -23.5206 -23.4584 -23.4362 -23.4333 -23.4240 -23.4223 -23.4172 -23.4164
   -23.4076 -23.4074 -23.3832 -23.3803 -23.3706 -23.2479 -23.2361 -23.2282
   -23.1168 -23.1127 -23.0995 -23.0980 -23.0966 -23.0940 -23.0844 -23.0816
   -20.7429 -20.6608 -20.6557 -20.6378 -20.5785 -20.5561 -20.5543 -20.4712
   -10.0085  -9.0629  -9.0362  -9.0091  -8.9895  -8.9647  -8.9356  -8.9271
    -8.9126  -8.8733  -8.1097  -7.9744  -7.9443  -7.6393  -7.5743  -7.5357
    -7.4877  -7.4006  -7.3832  -7.3071  -7.2400  -7.1514  -6.2822  -3.6412
    -3.5511  -3.4983  -3.4225  -3.3995  -3.3748  -3.3635  -3.2890  -3.2847
    -3.2470  -3.2278  -3.1944  -0.7117  -0.6236  -0.0100   0.0329   0.0620
     0.0714   0.0878   0.1218   0.1421   0.1816   0.1939   0.3085   4.4872
     4.5409   4.5713   5.2213   5.2721   5.4911   5.6397   5.7691   6.0258
     6.3086   6.3671   6.4951   6.5358   6.5535   6.5739   6.7661   6.8133
     6.8389   6.9022   7.0421   7.1258   7.2471   7.3487   7.3673   7.3903
     7.4208   7.4335   7.4780   7.5238   7.6232   7.7831   7.8056   7.8776
     7.9892   8.0075   8.0187   8.0885   8.1015   8.1559   8.1663   8.1973
     8.2092   8.2398   8.2598   8.3367   8.3686   8.4177   8.4956   8.7048
     8.7626   8.8276   8.9094   8.9539   9.0701   9.1718   9.3639   9.4875
    10.6717  10.7382  11.1415  11.1997  11.3064  11.3261  11.3411  11.3997
    11.4014  11.4114  11.4224  11.4422  11.4482  11.4786  11.4853  11.5089
    11.5341  11.5626  11.5686  11.6212  11.6488  11.6673  11.7018  11.7251
    11.7544  11.7734  11.7930  11.7983  11.8199  11.8332  11.8500  11.9002
    11.9273  11.9366  11.9611  11.9853  12.0198  12.0545  12.1110  12.1350
    12.1849  12.2207  12.2487  12.2642

          k =-0.2500 0.2500-0.2500 ( 38877 PWs)   bands (ev):

   -47.2276 -47.2060 -47.1988 -47.1975 -46.9245 -46.9226 -46.9118 -46.9065
   -23.5206 -23.4584 -23.4362 -23.4333 -23.4240 -23.4223 -23.4172 -23.4164
   -23.4076 -23.4074 -23.3832 -23.3803 -23.3706 -23.2479 -23.2361 -23.2282
   -23.1168 -23.1127 -23.0995 -23.0980 -23.0966 -23.0940 -23.0844 -23.0816
   -20.7428 -20.6619 -20.6556 -20.6368 -20.5793 -20.5555 -20.5543 -20.4713
   -10.0085  -9.0631  -9.0362  -9.0095  -8.9889  -8.9648  -8.9354  -8.9270
    -8.9128  -8.8733  -8.1087  -7.9766  -7.9442  -7.6391  -7.5745  -7.5354
    -7.4878  -7.3978  -7.3796  -7.3140  -7.2399  -7.1501  -6.2824  -3.6410
    -3.5509  -3.4981  -3.4231  -3.4016  -3.3750  -3.3607  -3.2894  -3.2842
    -3.2475  -3.2280  -3.1945  -0.7116  -0.6235  -0.0097   0.0328   0.0610
     0.0730   0.0876   0.1217   0.1415   0.1812   0.1946   0.3083   4.4911
     4.5399   4.5712   5.2182   5.2747   5.4723   5.6362   5.7777   6.0246
     6.3296   6.4057   6.4739   6.5282   6.5386   6.5787   6.7570   6.8505
     6.8584   6.8721   7.0175   7.1263   7.2482   7.3517   7.3639   7.3963
     7.4199   7.4334   7.4729   7.5213   7.6308   7.7866   7.7958   7.8811
     7.9823   8.0163   8.0259   8.0606   8.0923   8.1605   8.1676   8.1964
     8.2137   8.2196   8.2676   8.3411   8.3719   8.4169   8.4970   8.7105
     8.7872   8.8137   8.9163   8.9552   9.0687   9.1722   9.3626   9.4844
    10.6832  10.7390  11.1348  11.1979  11.3092  11.3203  11.3441  11.3943
    11.4024  11.4098  11.4259  11.4470  11.4516  11.4731  11.4830  11.5127
    11.5240  11.5503  11.5674  11.6139  11.6599  11.6643  11.6991  11.7272
    11.7507  11.7763  11.7954  11.8020  11.8113  11.8295  11.8590  11.9046
    11.9298  11.9430  11.9710  11.9923  12.0058  12.0426  12.1098  12.1422
    12.1903  12.2145  12.2530  12.2650

     the Fermi energy is    11.4676 ev

!    total energy              =   -4505.68286129 Ry
     total all-electron energy =    -67991.418612 Ry
     estimated scf accuracy    <          6.4E-11 Ry
     smearing contrib. (-TS)   =      -0.02007239 Ry
     internal energy E=F+TS    =   -4505.66278890 Ry

     The total energy is F=E-TS. E is the sum of the following terms:
     one-electron contribution =    -560.12731151 Ry
     hartree contribution      =     476.93546508 Ry
     xc contribution           =    -471.31465344 Ry
     ewald contribution        =   -1674.39525025 Ry
     one-center paw contrib.   =   -2276.76103878 Ry

     convergence has been achieved in  40 iterations
     XML data file, charge density, pseudopotentials, collected wavefunctions
